   * xtb version 6.5.1 (b24c23e) compiled by 'conda@728c89f4b128' on 2022-07-12
          program call               : /home/chase/psi4conda/envs/xtbenv/bin/xtb --gfn 2 --chrg 1 --uhf 0 mamm-opt-1-2-270_preQMOPTprefit_xyzformat.xyz --opt --input xtb-opt-1-2-270_constr.txt

   ID    Z sym.   atoms
    1    6 C      1
    2    7 N      2
    3    1 H      3-8
constraining angle 7 1 2 5 to  270.0038080°, actual value:  -89.9961920°

          :  Hamiltonian                  GFN2-xTB          :
 * total energy  :    -7.6636593 Eh     change       -0.9441337E-12 Eh
 * total energy  :    -7.6643336 Eh     change       -0.6743175E-03 Eh
 * total energy  :    -7.6644587 Eh     change       -0.1250989E-03 Eh
 * total energy  :    -7.6644639 Eh     change       -0.5228879E-05 Eh
 * total energy  :    -7.6644650 Eh     change       -0.1031288E-05 Eh
   *** GEOMETRY OPTIMIZATION CONVERGED AFTER 5 ITERATIONS ***

 final structure:
================
8
 xtb: 6.5.1 (b24c23e)
C            0.76927142170547       -0.05102015703007        0.09025965351358
N           -0.70523220919541        0.04788550744198       -0.09408436384095
H           -1.08223334963628       -0.80095111436336       -0.53385225903304
H           -1.17058531250051        0.17286407117269        0.81518588296300
H           -0.94635143028694        0.86503457689540       -0.67009060506414
H            0.99385539889087       -0.54472350638106        1.03400026116368
H            1.21061460505633       -0.64820726864573       -0.70434743227335
H            1.22165687596647        0.93677788091014        0.09895384257121

          :  Hamiltonian                  GFN2-xTB          :
         :: total energy              -7.664464953682 Eh    ::
         :: gradient norm              0.000654292329 Eh/a0 ::
         :: HOMO-LUMO gap             11.007946986356 eV    ::
         :: SCC energy                -7.773745035559 Eh    ::
         :: -> dispersion             -0.001377211284 Eh    ::
         :: repulsion energy           0.109277187890 Eh    ::

    * Orbital Energies and Occupations

         #    Occupation            Energy/Eh            Energy/eV
      -------------------------------------------------------------
         1        2.0000           -0.9126860             -24.8354
         2        2.0000           -0.8550479             -23.2670
         3        2.0000           -0.8185382             -22.2736
         4        2.0000           -0.8170346             -22.2326
         5        2.0000           -0.7595630             -20.6688
         6        2.0000           -0.6858058             -18.6617
         7        2.0000           -0.6834906             -18.5987 (HOMO)
         8                         -0.2789560              -7.5908 (LUMO)
         9                         -0.1642271              -4.4688
        10                         -0.1219345              -3.3180
        11                         -0.1135642              -3.0902
        12                         -0.0321957              -0.8761
        13                          0.0258931               0.7046
        14                          0.0388953               1.0584
      -------------------------------------------------------------
                  HL-Gap            0.4045346 Eh           11.0079 eV

     #   Z          covCN         q      C6AA      α(0)
     1   6 C        3.679    -0.101    22.670     6.820
     2   7 N        3.482    -0.111    23.411     7.186
     3   1 H        0.859     0.278     0.784     1.387
     4   1 H        0.859     0.277     0.787     1.390
     5   1 H        0.859     0.277     0.785     1.388
     6   1 H        0.925     0.126     1.568     1.958
     7   1 H        0.925     0.127     1.557     1.951
     8   1 H        0.925     0.128     1.553     1.949

Wiberg/Mayer (AO) data.
largest (>0.10) Wiberg bond orders for each atom

     #   Z sym  total        # sym  WBO       # sym  WBO       # sym  WBO
 ---------------------------------------------------------------------------
     1   6 C    3.875 --     6 H    0.974     7 H    0.974     8 H    0.974
                             2 N    0.952
     2   7 N    3.684 --     1 C    0.952     3 H    0.911     4 H    0.910
                             5 H    0.910
     3   1 H    0.923 --     2 N    0.911
     4   1 H    0.923 --     2 N    0.910
     5   1 H    0.923 --     2 N    0.910
     6   1 H    0.984 --     1 C    0.974
     7   1 H    0.984 --     1 C    0.974
     8   1 H    0.984 --     1 C    0.974
 ---------------------------------------------------------------------------

molecular dipole:
                 x           y           z       tot (Debye)
 q only:       -0.854       0.064      -0.102
   full:       -1.075       0.080      -0.123       2.758

           -------------------------------------------------
          | TOTAL ENERGY               -7.664464953682 Eh   |
          | GRADIENT NORM               0.000654292329 Eh/α |
          | HOMO-LUMO GAP              11.007946986356 eV   |
           -------------------------------------------------

 * finished run on 2022/11/03 at 12:45:56.551
