   * xtb version 6.5.1 (b24c23e) compiled by 'conda@728c89f4b128' on 2022-07-12
          program call               : /home/chase/psi4conda/envs/xtbenv/bin/xtb --gfn 2 --chrg 1 --uhf 0 mamm-opt-1-2-300_preQMOPTprefit_xyzformat.xyz --opt --input xtb-opt-1-2-300_constr.txt

   ID    Z sym.   atoms
    1    6 C      1
    2    7 N      2
    3    1 H      3-8
constraining angle 7 1 2 5 to  299.9999037°, actual value:  -60.0000963°

          :  Hamiltonian                  GFN2-xTB          :
 * total energy  :    -7.6654761 Eh     change       -0.4840572E-11 Eh
 * total energy  :    -7.6661915 Eh     change       -0.7154067E-03 Eh
 * total energy  :    -7.6663037 Eh     change       -0.1122484E-03 Eh
 * total energy  :    -7.6663045 Eh     change       -0.7643997E-06 Eh
   *** GEOMETRY OPTIMIZATION CONVERGED AFTER 4 ITERATIONS ***

 final structure:
================
8
 xtb: 6.5.1 (b24c23e)
C            0.76600675716946       -0.05881902005355        0.09483474168149
N           -0.70309266076477        0.05398918246022       -0.08704604600413
H           -1.11174435224274       -0.86627025913441       -0.29886354376859
H           -1.14530584998245        0.41703120306871        0.76816631572378
H           -0.92215391145278        0.69336340813121       -0.86290238677643
H            0.98991168348880       -0.73598373591301        0.91629600459774
H            1.22647639900007       -0.44304466587766       -0.81281185900482
H            1.19089794478441        0.91739389731849        0.31835178355096

          :  Hamiltonian                  GFN2-xTB          :
         :: total energy              -7.666304499550 Eh    ::
         :: gradient norm              0.000172522233 Eh/a0 ::
         :: HOMO-LUMO gap             11.109960187621 eV    ::
         :: SCC energy                -7.775465028792 Eh    ::
         :: -> dispersion             -0.001377988545 Eh    ::
         :: repulsion energy           0.109160388903 Eh    ::

    * Orbital Energies and Occupations

         #    Occupation            Energy/Eh            Energy/eV
      -------------------------------------------------------------
         1        2.0000           -0.9134523             -24.8563
         2        2.0000           -0.8556001             -23.2821
         3        2.0000           -0.8183668             -22.2689
         4        2.0000           -0.8183667             -22.2689
         5        2.0000           -0.7593963             -20.6642
         6        2.0000           -0.6852694             -18.6471
         7        2.0000           -0.6852694             -18.6471 (HOMO)
         8                         -0.2769858              -7.5372 (LUMO)
         9                         -0.1623318              -4.4173
        10                         -0.1101146              -2.9964
        11                         -0.1101146              -2.9964
        12                         -0.0356007              -0.9687
        13                          0.0240192               0.6536
        14                          0.0240193               0.6536
      -------------------------------------------------------------
                  HL-Gap            0.4082835 Eh           11.1100 eV

     #   Z          covCN         q      C6AA      α(0)
     1   6 C        3.679    -0.101    22.671     6.820
     2   7 N        3.482    -0.110    23.390     7.183
     3   1 H        0.859     0.277     0.786     1.389
     4   1 H        0.859     0.277     0.786     1.389
     5   1 H        0.859     0.277     0.786     1.389
     6   1 H        0.925     0.127     1.561     1.954
     7   1 H        0.925     0.127     1.561     1.954
     8   1 H        0.925     0.127     1.561     1.954

Wiberg/Mayer (AO) data.
largest (>0.10) Wiberg bond orders for each atom

     #   Z sym  total        # sym  WBO       # sym  WBO       # sym  WBO
 ---------------------------------------------------------------------------
     1   6 C    3.877 --     7 H    0.973     8 H    0.973     6 H    0.973
                             2 N    0.955
     2   7 N    3.685 --     1 C    0.955     4 H    0.910     3 H    0.910
                             5 H    0.910
     3   1 H    0.923 --     2 N    0.910
     4   1 H    0.923 --     2 N    0.910
     5   1 H    0.923 --     2 N    0.910
     6   1 H    0.984 --     1 C    0.973
     7   1 H    0.984 --     1 C    0.973
     8   1 H    0.984 --     1 C    0.973
 ---------------------------------------------------------------------------

molecular dipole:
                 x           y           z       tot (Debye)
 q only:       -0.850       0.065      -0.105
   full:       -1.069       0.082      -0.132       2.747

           -------------------------------------------------
          | TOTAL ENERGY               -7.666304499550 Eh   |
          | GRADIENT NORM               0.000172522233 Eh/α |
          | HOMO-LUMO GAP              11.109960187621 eV   |
           -------------------------------------------------

 * finished run on 2022/11/03 at 12:45:25.205
