   * xtb version 6.5.1 (b24c23e) compiled by 'conda@728c89f4b128' on 2022-07-12
          program call               : /home/chase/psi4conda/envs/xtbenv/bin/xtb --gfn 2 --chrg 1 --uhf 0 mamm-opt-1-2-240_preQMOPTprefit_xyzformat.xyz --opt --input xtb-opt-1-2-240_constr.txt

   ID    Z sym.   atoms
    1    6 C      1
    2    7 N      2
    3    1 H      3-8
constraining angle 7 1 2 5 to  239.9991139°, actual value: -120.0008861°

          :  Hamiltonian                  GFN2-xTB          :
 * total energy  :    -7.6618043 Eh     change       -0.1319833E-11 Eh
 * total energy  :    -7.6623766 Eh     change       -0.5723094E-03 Eh
 * total energy  :    -7.6624549 Eh     change       -0.7834919E-04 Eh
 * total energy  :    -7.6624561 Eh     change       -0.1177843E-05 Eh
   *** GEOMETRY OPTIMIZATION CONVERGED AFTER 4 ITERATIONS ***

 final structure:
================
8
 xtb: 6.5.1 (b24c23e)
C            0.77135566458018       -0.05320416259711        0.09556448934079
N           -0.70925469517234        0.04834791218205       -0.08787628193947
H           -1.04310786418624       -0.63813964515446       -0.77590202595218
H           -1.20277234893507       -0.12538111035235        0.79663425835370
H           -0.97598238463866        0.98360152889304       -0.41992724576486
H            1.01363715635136       -0.28991422958567        1.12842184217474
H            1.18296706262734       -0.83372849672435       -0.53917905789676
H            1.25415239937342        0.88607819333885       -0.16171095831596

          :  Hamiltonian                  GFN2-xTB          :
         :: total energy              -7.662456110440 Eh    ::
         :: gradient norm              0.000316042700 Eh/a0 ::
         :: HOMO-LUMO gap             10.945375884290 eV    ::
         :: SCC energy                -7.771894681199 Eh    ::
         :: -> dispersion             -0.001376240343 Eh    ::
         :: repulsion energy           0.109438421574 Eh    ::

    * Orbital Energies and Occupations

         #    Occupation            Energy/Eh            Energy/eV
      -------------------------------------------------------------
         1        2.0000           -0.9117337             -24.8095
         2        2.0000           -0.8543379             -23.2477
         3        2.0000           -0.8170984             -22.2344
         4        2.0000           -0.8170977             -22.2344
         5        2.0000           -0.7597644             -20.6742
         6        2.0000           -0.6839940             -18.6124
         7        2.0000           -0.6839931             -18.6124 (HOMO)
         8                         -0.2817580              -7.6670 (LUMO)
         9                         -0.1664968              -4.5306
        10                         -0.1257749              -3.4225
        11                         -0.1257712              -3.4224
        12                         -0.0278608              -0.7581
        13                          0.0414020               1.1266
        14                          0.0414083               1.1268
      -------------------------------------------------------------
                  HL-Gap            0.4022352 Eh           10.9454 eV

     #   Z          covCN         q      C6AA      α(0)
     1   6 C        3.679    -0.101    22.667     6.820
     2   7 N        3.481    -0.112    23.436     7.190
     3   1 H        0.859     0.277     0.785     1.388
     4   1 H        0.859     0.277     0.785     1.388
     5   1 H        0.859     0.277     0.785     1.388
     6   1 H        0.925     0.127     1.557     1.952
     7   1 H        0.925     0.127     1.557     1.952
     8   1 H        0.925     0.127     1.557     1.952

Wiberg/Mayer (AO) data.
largest (>0.10) Wiberg bond orders for each atom

     #   Z sym  total        # sym  WBO       # sym  WBO       # sym  WBO
 ---------------------------------------------------------------------------
     1   6 C    3.874 --     6 H    0.975     8 H    0.975     7 H    0.975
                             2 N    0.947
     2   7 N    3.683 --     1 C    0.947     4 H    0.911     5 H    0.911
                             3 H    0.911
     3   1 H    0.923 --     2 N    0.911
     4   1 H    0.923 --     2 N    0.911
     5   1 H    0.923 --     2 N    0.911
     6   1 H    0.984 --     1 C    0.975
     7   1 H    0.984 --     1 C    0.975
     8   1 H    0.984 --     1 C    0.975
 ---------------------------------------------------------------------------

molecular dipole:
                 x           y           z       tot (Debye)
 q only:       -0.857       0.058      -0.106
   full:       -1.079       0.073      -0.134       2.770

           -------------------------------------------------
          | TOTAL ENERGY               -7.662456110440 Eh   |
          | GRADIENT NORM               0.000316042700 Eh/α |
          | HOMO-LUMO GAP              10.945375884290 eV   |
           -------------------------------------------------

 * finished run on 2022/11/03 at 12:46:04.606
