   * xtb version 6.5.1 (b24c23e) compiled by 'conda@728c89f4b128' on 2022-07-12
          program call               : /home/chase/psi4conda/envs/xtbenv/bin/xtb --gfn 2 --chrg 1 --uhf 0 mamm-opt-1-2-030_preQMOPTprefit_xyzformat.xyz --opt --input xtb-opt-1-2-030_constr.txt

   ID    Z sym.   atoms
    1    6 C      1
    2    7 N      2
    3    1 H      3-8
constraining angle 7 1 2 5 to   30.0045109°, actual value:   30.0045109°

          :  Hamiltonian                  GFN2-xTB          :
 * total energy  :    -7.6636594 Eh     change       -0.4559908E-11 Eh
 * total energy  :    -7.6643353 Eh     change       -0.6758667E-03 Eh
 * total energy  :    -7.6644620 Eh     change       -0.1266631E-03 Eh
 * total energy  :    -7.6644670 Eh     change       -0.5040893E-05 Eh
 * total energy  :    -7.6644690 Eh     change       -0.1987624E-05 Eh
   *** GEOMETRY OPTIMIZATION CONVERGED AFTER 5 ITERATIONS ***

 final structure:
================
8
 xtb: 6.5.1 (b24c23e)
C            0.76849364087505       -0.05477149882190        0.09369392234444
N           -0.70678654081583        0.04890973462722       -0.08171603000265
H           -1.19903913172541       -0.64881612876141        0.49015276573933
H           -1.03370200393433        0.98318657854291        0.20020450131000
H           -0.96624382318197       -0.07514700752975       -1.06887565008631
H            1.05115209932307       -1.09313780814003        0.25845845345525
H            1.28111768534243        0.28497417780904       -0.80318593599392
H            1.09600607411700        0.53246095227393        0.94729497323386

          :  Hamiltonian                  GFN2-xTB          :
         :: total energy              -7.664469004521 Eh    ::
         :: gradient norm              0.000871034649 Eh/a0 ::
         :: HOMO-LUMO gap             11.013171803623 eV    ::
         :: SCC energy                -7.773723944677 Eh    ::
         :: -> dispersion             -0.001377203774 Eh    ::
         :: repulsion energy           0.109252143283 Eh    ::

    * Orbital Energies and Occupations

         #    Occupation            Energy/Eh            Energy/eV
      -------------------------------------------------------------
         1        2.0000           -0.9126734             -24.8351
         2        2.0000           -0.8550335             -23.2666
         3        2.0000           -0.8184887             -22.2722
         4        2.0000           -0.8170674             -22.2335
         5        2.0000           -0.7595639             -20.6688
         6        2.0000           -0.6855729             -18.6554
         7        2.0000           -0.6836856             -18.6040 (HOMO)
         8                         -0.2789590              -7.5909 (LUMO)
         9                         -0.1642832              -4.4704
        10                         -0.1205490              -3.2803
        11                         -0.1149984              -3.1293
        12                         -0.0322068              -0.8764
        13                          0.0273714               0.7448
        14                          0.0372537               1.0137
      -------------------------------------------------------------
                  HL-Gap            0.4047266 Eh           11.0132 eV

     #   Z          covCN         q      C6AA      α(0)
     1   6 C        3.679    -0.101    22.670     6.820
     2   7 N        3.482    -0.111    23.410     7.186
     3   1 H        0.859     0.278     0.784     1.387
     4   1 H        0.859     0.277     0.787     1.390
     5   1 H        0.859     0.277     0.785     1.388
     6   1 H        0.925     0.126     1.565     1.956
     7   1 H        0.925     0.127     1.560     1.953
     8   1 H        0.925     0.128     1.554     1.949

Wiberg/Mayer (AO) data.
largest (>0.10) Wiberg bond orders for each atom

     #   Z sym  total        # sym  WBO       # sym  WBO       # sym  WBO
 ---------------------------------------------------------------------------
     1   6 C    3.875 --     6 H    0.974     7 H    0.974     8 H    0.974
                             2 N    0.952
     2   7 N    3.684 --     1 C    0.952     3 H    0.911     5 H    0.911
                             4 H    0.910
     3   1 H    0.923 --     2 N    0.911
     4   1 H    0.923 --     2 N    0.910
     5   1 H    0.923 --     2 N    0.911
     6   1 H    0.984 --     1 C    0.974
     7   1 H    0.984 --     1 C    0.974
     8   1 H    0.984 --     1 C    0.974
 ---------------------------------------------------------------------------

molecular dipole:
                 x           y           z       tot (Debye)
 q only:       -0.853       0.071      -0.102
   full:       -1.074       0.090      -0.130       2.758

           -------------------------------------------------
          | TOTAL ENERGY               -7.664469004521 Eh   |
          | GRADIENT NORM               0.000871034649 Eh/α |
          | HOMO-LUMO GAP              11.013171803623 eV   |
           -------------------------------------------------

 * finished run on 2022/11/03 at 12:45:33.806
