   * xtb version 6.5.1 (b24c23e) compiled by 'conda@728c89f4b128' on 2022-07-12
          program call               : /home/chase/psi4conda/envs/xtbenv/bin/xtb --gfn 2 --chrg 1 --uhf 0 mamm-opt-1-2-060_preQMOPTprefit_xyzformat.xyz --opt --input xtb-opt-1-2-060_constr.txt

   ID    Z sym.   atoms
    1    6 C      1
    2    7 N      2
    3    1 H      3-8
constraining angle 7 1 2 5 to   60.0007655°, actual value:   60.0007655°

          :  Hamiltonian                  GFN2-xTB          :
 * total energy  :    -7.6654777 Eh     change       -0.8573586E-11 Eh
 * total energy  :    -7.6661916 Eh     change       -0.7138722E-03 Eh
 * total energy  :    -7.6663037 Eh     change       -0.1121754E-03 Eh
 * total energy  :    -7.6663045 Eh     change       -0.7582438E-06 Eh
   *** GEOMETRY OPTIMIZATION CONVERGED AFTER 4 ITERATIONS ***

 final structure:
================
8
 xtb: 6.5.1 (b24c23e)
C            0.76642304919542       -0.06163930870885        0.08953799926440
N           -0.70351550322856        0.05684742748448       -0.08167003265627
H           -1.19551152631209       -0.46430404737331        0.65662239322936
H           -0.99379756555316        1.04276893344027       -0.03227693713812
H           -0.99176759266696       -0.32161404394256       -0.99403936697317
H            1.06582191250438       -1.10614745787220        0.03617191669850
H            1.27965120608337        0.49152627271288       -0.69409766779729
H            1.06369401997760        0.34022122425928        1.05577870537259

          :  Hamiltonian                  GFN2-xTB          :
         :: total energy              -7.666304498718 Eh    ::
         :: gradient norm              0.000190221427 Eh/a0 ::
         :: HOMO-LUMO gap             11.109916808387 eV    ::
         :: SCC energy                -7.775465114838 Eh    ::
         :: -> dispersion             -0.001377988205 Eh    ::
         :: repulsion energy           0.109160475447 Eh    ::

    * Orbital Energies and Occupations

         #    Occupation            Energy/Eh            Energy/eV
      -------------------------------------------------------------
         1        2.0000           -0.9134518             -24.8563
         2        2.0000           -0.8555996             -23.2821
         3        2.0000           -0.8183670             -22.2689
         4        2.0000           -0.8183660             -22.2689
         5        2.0000           -0.7593963             -20.6642
         6        2.0000           -0.6852700             -18.6471
         7        2.0000           -0.6852692             -18.6471 (HOMO)
         8                         -0.2769872              -7.5372 (LUMO)
         9                         -0.1623350              -4.4174
        10                         -0.1101173              -2.9964
        11                         -0.1101099              -2.9962
        12                         -0.0355998              -0.9687
        13                          0.0240166               0.6535
        14                          0.0240228               0.6537
      -------------------------------------------------------------
                  HL-Gap            0.4082819 Eh           11.1099 eV

     #   Z          covCN         q      C6AA      α(0)
     1   6 C        3.679    -0.101    22.671     6.820
     2   7 N        3.482    -0.110    23.390     7.183
     3   1 H        0.859     0.277     0.786     1.389
     4   1 H        0.859     0.277     0.786     1.389
     5   1 H        0.859     0.277     0.786     1.389
     6   1 H        0.925     0.127     1.561     1.954
     7   1 H        0.925     0.127     1.561     1.954
     8   1 H        0.925     0.127     1.561     1.954

Wiberg/Mayer (AO) data.
largest (>0.10) Wiberg bond orders for each atom

     #   Z sym  total        # sym  WBO       # sym  WBO       # sym  WBO
 ---------------------------------------------------------------------------
     1   6 C    3.877 --     7 H    0.973     6 H    0.973     8 H    0.973
                             2 N    0.955
     2   7 N    3.685 --     1 C    0.955     3 H    0.910     5 H    0.910
                             4 H    0.910
     3   1 H    0.923 --     2 N    0.910
     4   1 H    0.923 --     2 N    0.910
     5   1 H    0.923 --     2 N    0.910
     6   1 H    0.984 --     1 C    0.973
     7   1 H    0.984 --     1 C    0.973
     8   1 H    0.984 --     1 C    0.973
 ---------------------------------------------------------------------------

molecular dipole:
                 x           y           z       tot (Debye)
 q only:       -0.851       0.069      -0.099
   full:       -1.070       0.087      -0.124       2.747

           -------------------------------------------------
          | TOTAL ENERGY               -7.666304498718 Eh   |
          | GRADIENT NORM               0.000190221427 Eh/α |
          | HOMO-LUMO GAP              11.109916808387 eV   |
           -------------------------------------------------

 * finished run on 2022/11/03 at 12:45:37.853
