   * xtb version 6.5.1 (b24c23e) compiled by 'conda@728c89f4b128' on 2022-07-12
          program call               : /home/chase/psi4conda/envs/xtbenv/bin/xtb --gfn 2 --chrg 1 --uhf 0 mamm-opt-1-2-180_preQMOPTprefit_xyzformat.xyz --opt --input xtb-opt-1-2-180_constr.txt

   ID    Z sym.   atoms
    1    6 C      1
    2    7 N      2
    3    1 H      3-8
constraining angle 7 1 2 5 to  180.0000945°, actual value: -179.9999055°

          :  Hamiltonian                  GFN2-xTB          :
 * total energy  :    -7.6654686 Eh     change       -0.2293721E-10 Eh
 * total energy  :    -7.6661905 Eh     change       -0.7218742E-03 Eh
 * total energy  :    -7.6663037 Eh     change       -0.1132098E-03 Eh
 * total energy  :    -7.6663045 Eh     change       -0.7689533E-06 Eh
   *** GEOMETRY OPTIMIZATION CONVERGED AFTER 4 ITERATIONS ***

 final structure:
================
8
 xtb: 6.5.1 (b24c23e)
C            0.76679188036473       -0.04297539378213        0.09692723805406
N           -0.70388339940784        0.03793593965491       -0.08917095452762
H           -0.95847958890990       -0.20222685018178       -1.05676662523563
H           -1.18386477913326       -0.61497770071219        0.54491509799404
H           -1.04038114542878        0.98993508249449        0.10883763488804
H            1.02836949538855        0.21204573777560        1.12163799256193
H            1.11516623114262       -1.05174119587900       -0.11404559516220
H            1.26727629598389        0.64966537063009       -0.57630978857262

          :  Hamiltonian                  GFN2-xTB          :
         :: total energy              -7.666304499324 Eh    ::
         :: gradient norm              0.000173478651 Eh/a0 ::
         :: HOMO-LUMO gap             11.109935785254 eV    ::
         :: SCC energy                -7.775464438555 Eh    ::
         :: -> dispersion             -0.001377988453 Eh    ::
         :: repulsion energy           0.109159798869 Eh    ::

    * Orbital Energies and Occupations

         #    Occupation            Energy/Eh            Energy/eV
      -------------------------------------------------------------
         1        2.0000           -0.9134522             -24.8563
         2        2.0000           -0.8555999             -23.2821
         3        2.0000           -0.8183676             -22.2689
         4        2.0000           -0.8183658             -22.2689
         5        2.0000           -0.7593957             -20.6642
         6        2.0000           -0.6852697             -18.6471
         7        2.0000           -0.6852696             -18.6471 (HOMO)
         8                         -0.2769869              -7.5372 (LUMO)
         9                         -0.1623334              -4.4173
        10                         -0.1101191              -2.9965
        11                         -0.1101104              -2.9963
        12                         -0.0356051              -0.9689
        13                          0.0240183               0.6536
        14                          0.0240194               0.6536
      -------------------------------------------------------------
                  HL-Gap            0.4082826 Eh           11.1099 eV

     #   Z          covCN         q      C6AA      α(0)
     1   6 C        3.679    -0.101    22.671     6.820
     2   7 N        3.482    -0.110    23.390     7.183
     3   1 H        0.859     0.277     0.786     1.389
     4   1 H        0.859     0.277     0.786     1.389
     5   1 H        0.859     0.277     0.786     1.389
     6   1 H        0.925     0.127     1.561     1.954
     7   1 H        0.925     0.127     1.561     1.954
     8   1 H        0.925     0.127     1.561     1.954

Wiberg/Mayer (AO) data.
largest (>0.10) Wiberg bond orders for each atom

     #   Z sym  total        # sym  WBO       # sym  WBO       # sym  WBO
 ---------------------------------------------------------------------------
     1   6 C    3.877 --     7 H    0.973     8 H    0.973     6 H    0.973
                             2 N    0.955
     2   7 N    3.685 --     1 C    0.955     5 H    0.910     3 H    0.910
                             4 H    0.910
     3   1 H    0.923 --     2 N    0.910
     4   1 H    0.923 --     2 N    0.910
     5   1 H    0.923 --     2 N    0.910
     6   1 H    0.984 --     1 C    0.973
     7   1 H    0.984 --     1 C    0.973
     8   1 H    0.984 --     1 C    0.973
 ---------------------------------------------------------------------------

molecular dipole:
                 x           y           z       tot (Debye)
 q only:       -0.851       0.045      -0.108
   full:       -1.071       0.057      -0.136       2.747

           -------------------------------------------------
          | TOTAL ENERGY               -7.666304499324 Eh   |
          | GRADIENT NORM               0.000173478651 Eh/α |
          | HOMO-LUMO GAP              11.109935785254 eV   |
           -------------------------------------------------

 * finished run on 2022/11/03 at 12:46:24.087
