   * xtb version 6.5.1 (b24c23e) compiled by 'conda@728c89f4b128' on 2022-07-12
          program call               : /home/chase/psi4conda/envs/xtbenv/bin/xtb --gfn 2 --chrg 1 --uhf 0 mamm-opt-1-2-360_preQMOPTprefit_xyzformat.xyz --opt --input xtb-opt-1-2-360_constr.txt

   ID    Z sym.   atoms
    1    6 C      1
    2    7 N      2
    3    1 H      3-8
constraining angle 7 1 2 5 to    0.0003915°, actual value:    0.0003915°

          :  Hamiltonian                  GFN2-xTB          :
 * total energy  :    -7.6618055 Eh     change       -0.1318057E-11 Eh
 * total energy  :    -7.6623767 Eh     change       -0.5712003E-03 Eh
 * total energy  :    -7.6624549 Eh     change       -0.7825174E-04 Eh
 * total energy  :    -7.6624561 Eh     change       -0.1172764E-05 Eh
   *** GEOMETRY OPTIMIZATION CONVERGED AFTER 4 ITERATIONS ***

 final structure:
================
8
 xtb: 6.5.1 (b24c23e)
C            0.77134979210993       -0.05813016614953        0.09269585876115
N           -0.70924332079987        0.05334005240062       -0.08497258444138
H           -1.18346074166329       -0.80226778232979        0.22991196081128
H           -1.08688546199363        0.84112374561814        0.45621776695087
H           -0.95146194365589        0.20359043368366       -1.07231952539387
H            1.03408901213627       -1.02315284438347        0.51840245150337
H            1.28012667110374        0.04357902446552       -0.86247160356650
H            1.13648400276275        0.71957654669485        0.75856268537508

          :  Hamiltonian                  GFN2-xTB          :
         :: total energy              -7.662456114981 Eh    ::
         :: gradient norm              0.000319654148 Eh/a0 ::
         :: HOMO-LUMO gap             10.945494198297 eV    ::
         :: SCC energy                -7.771895417259 Eh    ::
         :: -> dispersion             -0.001376241280 Eh    ::
         :: repulsion energy           0.109439152829 Eh    ::

    * Orbital Energies and Occupations

         #    Occupation            Energy/Eh            Energy/eV
      -------------------------------------------------------------
         1        2.0000           -0.9117351             -24.8096
         2        2.0000           -0.8543390             -23.2477
         3        2.0000           -0.8171007             -22.2344
         4        2.0000           -0.8170977             -22.2344
         5        2.0000           -0.7597639             -20.6742
         6        2.0000           -0.6839946             -18.6124
         7        2.0000           -0.6839931             -18.6124 (HOMO)
         8                         -0.2817536              -7.6669 (LUMO)
         9                         -0.1664931              -4.5305
        10                         -0.1257797              -3.4226
        11                         -0.1257671              -3.4223
        12                         -0.0278646              -0.7582
        13                          0.0414070               1.1267
        14                          0.0414109               1.1268
      -------------------------------------------------------------
                  HL-Gap            0.4022395 Eh           10.9455 eV

     #   Z          covCN         q      C6AA      α(0)
     1   6 C        3.679    -0.101    22.667     6.820
     2   7 N        3.481    -0.112    23.436     7.190
     3   1 H        0.859     0.277     0.785     1.388
     4   1 H        0.859     0.277     0.785     1.388
     5   1 H        0.859     0.277     0.785     1.388
     6   1 H        0.925     0.127     1.557     1.952
     7   1 H        0.925     0.127     1.557     1.952
     8   1 H        0.925     0.127     1.557     1.952

Wiberg/Mayer (AO) data.
largest (>0.10) Wiberg bond orders for each atom

     #   Z sym  total        # sym  WBO       # sym  WBO       # sym  WBO
 ---------------------------------------------------------------------------
     1   6 C    3.874 --     6 H    0.975     8 H    0.975     7 H    0.975
                             2 N    0.947
     2   7 N    3.683 --     1 C    0.947     3 H    0.911     5 H    0.911
                             4 H    0.911
     3   1 H    0.923 --     2 N    0.911
     4   1 H    0.923 --     2 N    0.911
     5   1 H    0.923 --     2 N    0.911
     6   1 H    0.984 --     1 C    0.975
     7   1 H    0.984 --     1 C    0.975
     8   1 H    0.984 --     1 C    0.975
 ---------------------------------------------------------------------------

molecular dipole:
                 x           y           z       tot (Debye)
 q only:       -0.857       0.064      -0.103
   full:       -1.079       0.081      -0.129       2.770

           -------------------------------------------------
          | TOTAL ENERGY               -7.662456114981 Eh   |
          | GRADIENT NORM               0.000319654148 Eh/α |
          | HOMO-LUMO GAP              10.945494198297 eV   |
           -------------------------------------------------

 * finished run on 2022/11/03 at 12:45:30.507
