   * xtb version 6.5.1 (b24c23e) compiled by 'conda@728c89f4b128' on 2022-07-12
          program call               : /home/chase/psi4conda/envs/xtbenv/bin/xtb --gfn 2 --chrg 1 --uhf 0 mamm-opt-1-2-150_preQMOPTprefit_xyzformat.xyz --opt --input xtb-opt-1-2-150_constr.txt

   ID    Z sym.   atoms
    1    6 C      1
    2    7 N      2
    3    1 H      3-8
constraining angle 7 1 2 5 to  150.0043749°, actual value:  150.0043749°

          :  Hamiltonian                  GFN2-xTB          :
 * total energy  :    -7.6636547 Eh     change       -0.7220891E-12 Eh
 * total energy  :    -7.6643329 Eh     change       -0.6782599E-03 Eh
 * total energy  :    -7.6644576 Eh     change       -0.1246326E-03 Eh
 * total energy  :    -7.6644625 Eh     change       -0.4884283E-05 Eh
   *** GEOMETRY OPTIMIZATION CONVERGED AFTER 4 ITERATIONS ***

 final structure:
================
8
 xtb: 6.5.1 (b24c23e)
C            0.76967766876704       -0.03744189624620        0.09088461986709
N           -0.70571039657873        0.03660217600220       -0.09803627144029
H           -0.95239466825726        0.03553349351082       -1.09592620527605
H           -1.16248131227778       -0.77121342008554        0.34630292472781
H           -1.08813377104698        0.88221490545092        0.34466538129780
H            1.04740826612892        0.42345009068338        1.03689202703968
H            1.09648802930780       -1.07410377389069        0.12278022585087
H            1.28614019395698        0.48261941457512       -0.71153870206691

          :  Hamiltonian                  GFN2-xTB          :
         :: total energy              -7.664462466465 Eh    ::
         :: gradient norm              0.000762538308 Eh/a0 ::
         :: HOMO-LUMO gap             11.018726748224 eV    ::
         :: SCC energy                -7.773751450434 Eh    ::
         :: -> dispersion             -0.001377217440 Eh    ::
         :: repulsion energy           0.109285325646 Eh    ::

    * Orbital Energies and Occupations

         #    Occupation            Energy/Eh            Energy/eV
      -------------------------------------------------------------
         1        2.0000           -0.9126708             -24.8350
         2        2.0000           -0.8550181             -23.2662
         3        2.0000           -0.8183740             -22.2691
         4        2.0000           -0.8171884             -22.2368
         5        2.0000           -0.7596096             -20.6700
         6        2.0000           -0.6853928             -18.6505
         7        2.0000           -0.6838540             -18.6086 (HOMO)
         8                         -0.2789233              -7.5899 (LUMO)
         9                         -0.1643104              -4.4711
        10                         -0.1211941              -3.2979
        11                         -0.1144934              -3.1155
        12                         -0.0318816              -0.8675
        13                          0.0281103               0.7649
        14                          0.0367561               1.0002
      -------------------------------------------------------------
                  HL-Gap            0.4049308 Eh           11.0187 eV

     #   Z          covCN         q      C6AA      α(0)
     1   6 C        3.679    -0.101    22.671     6.820
     2   7 N        3.482    -0.111    23.409     7.186
     3   1 H        0.859     0.278     0.784     1.387
     4   1 H        0.859     0.277     0.787     1.389
     5   1 H        0.859     0.277     0.785     1.388
     6   1 H        0.925     0.126     1.568     1.958
     7   1 H        0.925     0.127     1.561     1.954
     8   1 H        0.925     0.128     1.550     1.947

Wiberg/Mayer (AO) data.
largest (>0.10) Wiberg bond orders for each atom

     #   Z sym  total        # sym  WBO       # sym  WBO       # sym  WBO
 ---------------------------------------------------------------------------
     1   6 C    3.875 --     6 H    0.974     7 H    0.974     8 H    0.974
                             2 N    0.952
     2   7 N    3.684 --     1 C    0.952     5 H    0.911     3 H    0.910
                             4 H    0.910
     3   1 H    0.923 --     2 N    0.910
     4   1 H    0.923 --     2 N    0.910
     5   1 H    0.923 --     2 N    0.911
     6   1 H    0.984 --     1 C    0.974
     7   1 H    0.984 --     1 C    0.974
     8   1 H    0.984 --     1 C    0.974
 ---------------------------------------------------------------------------

molecular dipole:
                 x           y           z       tot (Debye)
 q only:       -0.855       0.037      -0.106
   full:       -1.077       0.045      -0.126       2.758

           -------------------------------------------------
          | TOTAL ENERGY               -7.664462466465 Eh   |
          | GRADIENT NORM               0.000762538308 Eh/α |
          | HOMO-LUMO GAP              11.018726748224 eV   |
           -------------------------------------------------

 * finished run on 2022/11/03 at 12:46:35.317
