   * xtb version 6.5.1 (b24c23e) compiled by 'conda@728c89f4b128' on 2022-07-12
          program call               : /home/chase/psi4conda/envs/xtbenv/bin/xtb --gfn 2 --chrg 1 --uhf 0 mamm-opt-1-2-210_preQMOPTprefit_xyzformat.xyz --opt --input xtb-opt-1-2-210_constr.txt

   ID    Z sym.   atoms
    1    6 C      1
    2    7 N      2
    3    1 H      3-8
constraining angle 7 1 2 5 to  209.9943979°, actual value: -150.0056021°

          :  Hamiltonian                  GFN2-xTB          :
 * total energy  :    -7.6636597 Eh     change       -0.5118572E-11 Eh
 * total energy  :    -7.6643336 Eh     change       -0.6738966E-03 Eh
 * total energy  :    -7.6644577 Eh     change       -0.1241993E-03 Eh
 * total energy  :    -7.6644626 Eh     change       -0.4848224E-05 Eh
   *** GEOMETRY OPTIMIZATION CONVERGED AFTER 4 ITERATIONS ***

 final structure:
================
8
 xtb: 6.5.1 (b24c23e)
C            0.76737035998413       -0.05189269210811        0.10267327776976
N           -0.70756720551028        0.04354280341054       -0.08006003388209
H           -0.98839637362418       -0.41799988515482       -0.95570895127948
H           -1.20748972089394       -0.40925442255077        0.69562534004363
H           -1.00403197442073        1.02586259282252       -0.14677662388734
H            1.02666557304994       -0.01698437231725        1.15748448909231
H            1.14504695566796       -0.97289604832044       -0.33505237040874
H            1.25939837574711        0.77728302421833       -0.40216013744804

          :  Hamiltonian                  GFN2-xTB          :
         :: total energy              -7.664462597768 Eh    ::
         :: gradient norm              0.000746225054 Eh/a0 ::
         :: HOMO-LUMO gap             11.018736204681 eV    ::
         :: SCC energy                -7.773751777483 Eh    ::
         :: -> dispersion             -0.001377217413 Eh    ::
         :: repulsion energy           0.109285541225 Eh    ::

    * Orbital Energies and Occupations

         #    Occupation            Energy/Eh            Energy/eV
      -------------------------------------------------------------
         1        2.0000           -0.9126711             -24.8350
         2        2.0000           -0.8550188             -23.2662
         3        2.0000           -0.8183743             -22.2691
         4        2.0000           -0.8171883             -22.2368
         5        2.0000           -0.7596092             -20.6700
         6        2.0000           -0.6853928             -18.6505
         7        2.0000           -0.6838548             -18.6086 (HOMO)
         8                         -0.2789237              -7.5899 (LUMO)
         9                         -0.1643076              -4.4710
        10                         -0.1211965              -3.2979
        11                         -0.1144927              -3.1155
        12                         -0.0318843              -0.8676
        13                          0.0281150               0.7650
        14                          0.0367560               1.0002
      -------------------------------------------------------------
                  HL-Gap            0.4049311 Eh           11.0187 eV

     #   Z          covCN         q      C6AA      α(0)
     1   6 C        3.679    -0.101    22.671     6.820
     2   7 N        3.482    -0.111    23.409     7.186
     3   1 H        0.859     0.277     0.787     1.389
     4   1 H        0.859     0.278     0.784     1.387
     5   1 H        0.859     0.277     0.785     1.388
     6   1 H        0.925     0.128     1.550     1.947
     7   1 H        0.925     0.127     1.561     1.954
     8   1 H        0.925     0.126     1.568     1.958

Wiberg/Mayer (AO) data.
largest (>0.10) Wiberg bond orders for each atom

     #   Z sym  total        # sym  WBO       # sym  WBO       # sym  WBO
 ---------------------------------------------------------------------------
     1   6 C    3.875 --     8 H    0.974     7 H    0.974     6 H    0.974
                             2 N    0.952
     2   7 N    3.684 --     1 C    0.952     5 H    0.911     4 H    0.910
                             3 H    0.910
     3   1 H    0.923 --     2 N    0.910
     4   1 H    0.923 --     2 N    0.910
     5   1 H    0.923 --     2 N    0.911
     6   1 H    0.984 --     1 C    0.974
     7   1 H    0.984 --     1 C    0.974
     8   1 H    0.984 --     1 C    0.974
 ---------------------------------------------------------------------------

molecular dipole:
                 x           y           z       tot (Debye)
 q only:       -0.854       0.053      -0.111
   full:       -1.073       0.068      -0.147       2.758

           -------------------------------------------------
          | TOTAL ENERGY               -7.664462597768 Eh   |
          | GRADIENT NORM               0.000746225054 Eh/α |
          | HOMO-LUMO GAP              11.018736204681 eV   |
           -------------------------------------------------

 * finished run on 2022/11/03 at 12:46:13.812
