   * xtb version 6.5.1 (b24c23e) compiled by 'conda@728c89f4b128' on 2022-07-12
          program call               : /home/chase/psi4conda/envs/xtbenv/bin/xtb --gfn 2 --chrg 1 --uhf 0 mamm-opt-1-2-120_preQMOPTprefit_xyzformat.xyz --opt --input xtb-opt-1-2-120_constr.txt

   ID    Z sym.   atoms
    1    6 C      1
    2    7 N      2
    3    1 H      3-8
constraining angle 7 1 2 5 to  120.0009404°, actual value:  120.0009404°

          :  Hamiltonian                  GFN2-xTB          :
 * total energy  :    -7.6618042 Eh     change       -0.1334932E-11 Eh
 * total energy  :    -7.6623766 Eh     change       -0.5723501E-03 Eh
 * total energy  :    -7.6624549 Eh     change       -0.7835404E-04 Eh
 * total energy  :    -7.6624561 Eh     change       -0.1178120E-05 Eh
   *** GEOMETRY OPTIMIZATION CONVERGED AFTER 4 ITERATIONS ***

 final structure:
================
8
 xtb: 6.5.1 (b24c23e)
C            0.77102712797718       -0.06796019614925        0.08858808551030
N           -0.70892029974980        0.06332029695049       -0.08079847974204
H           -1.18609984757656        0.05395340753587        0.82931813882216
H           -0.94885733107153        0.94336916080375       -0.55413419066829
H           -1.08541139901271       -0.71034401418664       -0.64275827942901
H            1.13708177570492       -0.95628267098466       -0.41976400229948
H            1.28189187094044        0.79742073667673       -0.32574831652854
H            1.03028710278806       -0.14581772064628        1.14132205433489

          :  Hamiltonian                  GFN2-xTB          :
         :: total energy              -7.662456110371 Eh    ::
         :: gradient norm              0.000316105937 Eh/a0 ::
         :: HOMO-LUMO gap             10.945374547015 eV    ::
         :: SCC energy                -7.771894673540 Eh    ::
         :: -> dispersion             -0.001376240333 Eh    ::
         :: repulsion energy           0.109438413984 Eh    ::

    * Orbital Energies and Occupations

         #    Occupation            Energy/Eh            Energy/eV
      -------------------------------------------------------------
         1        2.0000           -0.9117337             -24.8095
         2        2.0000           -0.8543379             -23.2477
         3        2.0000           -0.8170984             -22.2344
         4        2.0000           -0.8170977             -22.2344
         5        2.0000           -0.7597644             -20.6742
         6        2.0000           -0.6839940             -18.6124
         7        2.0000           -0.6839931             -18.6124 (HOMO)
         8                         -0.2817580              -7.6670 (LUMO)
         9                         -0.1664969              -4.5306
        10                         -0.1257748              -3.4225
        11                         -0.1257712              -3.4224
        12                         -0.0278607              -0.7581
        13                          0.0414020               1.1266
        14                          0.0414082               1.1268
      -------------------------------------------------------------
                  HL-Gap            0.4022351 Eh           10.9454 eV

     #   Z          covCN         q      C6AA      α(0)
     1   6 C        3.679    -0.101    22.667     6.820
     2   7 N        3.481    -0.112    23.436     7.190
     3   1 H        0.859     0.277     0.785     1.388
     4   1 H        0.859     0.277     0.785     1.388
     5   1 H        0.859     0.277     0.785     1.388
     6   1 H        0.925     0.127     1.557     1.952
     7   1 H        0.925     0.127     1.557     1.952
     8   1 H        0.925     0.127     1.557     1.952

Wiberg/Mayer (AO) data.
largest (>0.10) Wiberg bond orders for each atom

     #   Z sym  total        # sym  WBO       # sym  WBO       # sym  WBO
 ---------------------------------------------------------------------------
     1   6 C    3.874 --     8 H    0.975     6 H    0.975     7 H    0.975
                             2 N    0.947
     2   7 N    3.683 --     1 C    0.947     3 H    0.911     5 H    0.911
                             4 H    0.911
     3   1 H    0.923 --     2 N    0.911
     4   1 H    0.923 --     2 N    0.911
     5   1 H    0.923 --     2 N    0.911
     6   1 H    0.984 --     1 C    0.975
     7   1 H    0.984 --     1 C    0.975
     8   1 H    0.984 --     1 C    0.975
 ---------------------------------------------------------------------------

molecular dipole:
                 x           y           z       tot (Debye)
 q only:       -0.857       0.077      -0.097
   full:       -1.079       0.096      -0.123       2.770

           -------------------------------------------------
          | TOTAL ENERGY               -7.662456110371 Eh   |
          | GRADIENT NORM               0.000316105937 Eh/α |
          | HOMO-LUMO GAP              10.945374547015 eV   |
           -------------------------------------------------

 * finished run on 2022/11/03 at 12:45:49.260
