   * xtb version 6.5.1 (b24c23e) compiled by 'conda@728c89f4b128' on 2022-07-12
          program call               : /home/chase/psi4conda/envs/xtbenv/bin/xtb --gfn 2 --chrg 1 --uhf 0 mamm-opt-1-2-090_preQMOPTprefit_xyzformat.xyz --opt --input xtb-opt-1-2-090_constr.txt

   ID    Z sym.   atoms
    1    6 C      1
    2    7 N      2
    3    1 H      3-8
constraining angle 7 1 2 5 to   89.9950496°, actual value:   89.9950496°

          :  Hamiltonian                  GFN2-xTB          :
 * total energy  :    -7.6636593 Eh     change       -0.5133671E-12 Eh
 * total energy  :    -7.6643339 Eh     change       -0.6745814E-03 Eh
 * total energy  :    -7.6644588 Eh     change       -0.1249127E-03 Eh
 * total energy  :    -7.6644640 Eh     change       -0.5232071E-05 Eh
 * total energy  :    -7.6644651 Eh     change       -0.1033645E-05 Eh
   *** GEOMETRY OPTIMIZATION CONVERGED AFTER 5 ITERATIONS ***

 final structure:
================
8
 xtb: 6.5.1 (b24c23e)
C            0.76874095082507       -0.06838560988868        0.08294671297204
N           -0.70481074977790        0.06492798841885       -0.08675424416353
H           -1.19105822637592       -0.24010420270320        0.76733256675309
H           -0.97005800226822        1.03940560733959       -0.27671884961041
H           -1.03891484607287       -0.53397448037057       -0.85313747699222
H            1.09599348387273       -1.07018829090060       -0.18119781883277
H            1.28814373487303        0.66059912068273       -0.53480729739117
H            1.04296165492407        0.12537987742188        1.11836340726498

          :  Hamiltonian                  GFN2-xTB          :
         :: total energy              -7.664465067139 Eh    ::
         :: gradient norm              0.000651694399 Eh/a0 ::
         :: HOMO-LUMO gap             11.007953249605 eV    ::
         :: SCC energy                -7.773744896877 Eh    ::
         :: -> dispersion             -0.001377211335 Eh    ::
         :: repulsion energy           0.109276932829 Eh    ::

    * Orbital Energies and Occupations

         #    Occupation            Energy/Eh            Energy/eV
      -------------------------------------------------------------
         1        2.0000           -0.9126859             -24.8354
         2        2.0000           -0.8550478             -23.2670
         3        2.0000           -0.8185381             -22.2736
         4        2.0000           -0.8170347             -22.2326
         5        2.0000           -0.7595631             -20.6688
         6        2.0000           -0.6858056             -18.6617
         7        2.0000           -0.6834905             -18.5987 (HOMO)
         8                         -0.2789557              -7.5908 (LUMO)
         9                         -0.1642271              -4.4688
        10                         -0.1219334              -3.3180
        11                         -0.1135642              -3.0902
        12                         -0.0321960              -0.8761
        13                          0.0258915               0.7045
        14                          0.0388929               1.0583
      -------------------------------------------------------------
                  HL-Gap            0.4045348 Eh           11.0080 eV

     #   Z          covCN         q      C6AA      α(0)
     1   6 C        3.679    -0.101    22.670     6.820
     2   7 N        3.482    -0.111    23.411     7.186
     3   1 H        0.859     0.277     0.787     1.390
     4   1 H        0.859     0.278     0.784     1.387
     5   1 H        0.859     0.277     0.785     1.388
     6   1 H        0.925     0.128     1.553     1.949
     7   1 H        0.925     0.127     1.557     1.951
     8   1 H        0.925     0.126     1.568     1.958

Wiberg/Mayer (AO) data.
largest (>0.10) Wiberg bond orders for each atom

     #   Z sym  total        # sym  WBO       # sym  WBO       # sym  WBO
 ---------------------------------------------------------------------------
     1   6 C    3.875 --     8 H    0.974     7 H    0.974     6 H    0.974
                             2 N    0.952
     2   7 N    3.684 --     1 C    0.952     4 H    0.911     3 H    0.910
                             5 H    0.910
     3   1 H    0.923 --     2 N    0.910
     4   1 H    0.923 --     2 N    0.911
     5   1 H    0.923 --     2 N    0.910
     6   1 H    0.984 --     1 C    0.974
     7   1 H    0.984 --     1 C    0.974
     8   1 H    0.984 --     1 C    0.974
 ---------------------------------------------------------------------------

molecular dipole:
                 x           y           z       tot (Debye)
 q only:       -0.854       0.070      -0.095
   full:       -1.075       0.087      -0.114       2.758

           -------------------------------------------------
          | TOTAL ENERGY               -7.664465067139 Eh   |
          | GRADIENT NORM               0.000651694399 Eh/α |
          | HOMO-LUMO GAP              11.007953249605 eV   |
           -------------------------------------------------

 * finished run on 2022/11/03 at 12:45:43.144
