   * xtb version 6.5.1 (b24c23e) compiled by 'conda@728c89f4b128' on 2022-07-12
          program call               : /home/chase/psi4conda/envs/xtbenv/bin/xtb --gfn 2 --chrg 1 --uhf 0 mamm-opt-1-2-330_preQMOPTprefit_xyzformat.xyz --opt --input xtb-opt-1-2-330_constr.txt

   ID    Z sym.   atoms
    1    6 C      1
    2    7 N      2
    3    1 H      3-8
constraining angle 7 1 2 5 to  329.9959777°, actual value:  -30.0040223°

          :  Hamiltonian                  GFN2-xTB          :
 * total energy  :    -7.6636589 Eh     change       -0.4787282E-12 Eh
 * total energy  :    -7.6643347 Eh     change       -0.6758115E-03 Eh
 * total energy  :    -7.6644617 Eh     change       -0.1269874E-03 Eh
 * total energy  :    -7.6644669 Eh     change       -0.5172658E-05 Eh
 * total energy  :    -7.6644690 Eh     change       -0.2051389E-05 Eh
   *** GEOMETRY OPTIMIZATION CONVERGED AFTER 5 ITERATIONS ***

 final structure:
================
8
 xtb: 6.5.1 (b24c23e)
C            0.76756910584408       -0.06485844294748        0.09474262016704
N           -0.70581996985469        0.06007534130108       -0.08265357990487
H           -1.14732470867478       -0.86922121636582       -0.05611502365439
H           -1.12239496316871        0.63404893797318        0.66110924292513
H           -0.92924433111474        0.47302887275419       -0.99739028044584
H            1.00591590914607       -0.89333613679360        0.75622882050718
H            1.25345716918571       -0.21230017621553       -0.86691158028317
H            1.16883977863706        0.85022183029399        0.52701579068892

          :  Hamiltonian                  GFN2-xTB          :
         :: total energy              -7.664468952074 Eh    ::
         :: gradient norm              0.000857085340 Eh/a0 ::
         :: HOMO-LUMO gap             11.013279521194 eV    ::
         :: SCC energy                -7.773724129544 Eh    ::
         :: -> dispersion             -0.001377204537 Eh    ::
         :: repulsion energy           0.109252367618 Eh    ::

    * Orbital Energies and Occupations

         #    Occupation            Energy/Eh            Energy/eV
      -------------------------------------------------------------
         1        2.0000           -0.9126740             -24.8351
         2        2.0000           -0.8550336             -23.2666
         3        2.0000           -0.8184891             -22.2722
         4        2.0000           -0.8170681             -22.2336
         5        2.0000           -0.7595645             -20.6688
         6        2.0000           -0.6855720             -18.6554
         7        2.0000           -0.6836853             -18.6040 (HOMO)
         8                         -0.2789547              -7.5907 (LUMO)
         9                         -0.1642815              -4.4703
        10                         -0.1205481              -3.2803
        11                         -0.1149976              -3.1292
        12                         -0.0322043              -0.8763
        13                          0.0273713               0.7448
        14                          0.0372488               1.0136
      -------------------------------------------------------------
                  HL-Gap            0.4047306 Eh           11.0133 eV

     #   Z          covCN         q      C6AA      α(0)
     1   6 C        3.679    -0.101    22.671     6.820
     2   7 N        3.482    -0.111    23.410     7.186
     3   1 H        0.859     0.277     0.787     1.390
     4   1 H        0.859     0.278     0.784     1.387
     5   1 H        0.859     0.277     0.785     1.388
     6   1 H        0.925     0.128     1.554     1.949
     7   1 H        0.925     0.127     1.560     1.953
     8   1 H        0.925     0.126     1.565     1.956

Wiberg/Mayer (AO) data.
largest (>0.10) Wiberg bond orders for each atom

     #   Z sym  total        # sym  WBO       # sym  WBO       # sym  WBO
 ---------------------------------------------------------------------------
     1   6 C    3.875 --     8 H    0.974     7 H    0.974     6 H    0.974
                             2 N    0.952
     2   7 N    3.684 --     1 C    0.952     4 H    0.911     5 H    0.911
                             3 H    0.910
     3   1 H    0.923 --     2 N    0.910
     4   1 H    0.923 --     2 N    0.911
     5   1 H    0.923 --     2 N    0.911
     6   1 H    0.984 --     1 C    0.974
     7   1 H    0.984 --     1 C    0.974
     8   1 H    0.984 --     1 C    0.974
 ---------------------------------------------------------------------------

molecular dipole:
                 x           y           z       tot (Debye)
 q only:       -0.854       0.062      -0.106
   full:       -1.074       0.078      -0.135       2.758

           -------------------------------------------------
          | TOTAL ENERGY               -7.664468952074 Eh   |
          | GRADIENT NORM               0.000857085340 Eh/α |
          | HOMO-LUMO GAP              11.013279521194 eV   |
           -------------------------------------------------

 * finished run on 2022/11/03 at 12:45:27.528
