   * xtb version 6.5.1 (b24c23e) compiled by 'conda@728c89f4b128' on 2022-07-12
          program call               : /home/chase/psi4conda/envs/xtbenv/bin/xtb --gfn 2 --chrg -1 --uhf 0 mso4-opt-4-5-241_preQMOPTprefit_xyzformat.xyz --opt --input xtb-opt-4-5-241_constr.txt

   ID    Z sym.   atoms
    1   16 S      1
    2    8 O      2-4, 6
    3    6 C      5
    4    1 H      7-9
constraining angle 1 4 5 7 to  241.0013832°, actual value: -118.9986168°
constraining angle 2 1 4 5 to  300.0018084°, actual value:  -59.9981916°

          :  Hamiltonian                  GFN2-xTB          :
 * total energy  :   -23.4530720 Eh     change       -0.2130989E-09 Eh
 * total energy  :   -23.4575865 Eh     change       -0.4514474E-02 Eh
 * total energy  :   -23.4591809 Eh     change       -0.1594398E-02 Eh
 * total energy  :   -23.4592448 Eh     change       -0.6395037E-04 Eh
 * total energy  :   -23.4592590 Eh     change       -0.1411272E-04 Eh
 * total energy  :   -23.4592616 Eh     change       -0.2620141E-05 Eh
 * total energy  :   -23.4592623 Eh     change       -0.7529823E-06 Eh
   *** GEOMETRY OPTIMIZATION CONVERGED AFTER 7 ITERATIONS ***

 final structure:
================
9
 xtb: 6.5.1 (b24c23e)
S           -0.28628014910242        0.02827717819795        0.32849537671396
O           -0.86360113454299       -1.06457326216529       -0.43598410019450
O            0.35066430849315       -0.40621962594401        1.56040934793178
O            0.97647507390242        0.59040475922211       -0.62517299097707
C            1.86875201097831       -0.45469230546770       -0.81393487081645
O           -1.13775907902866        1.18907663752834        0.46327519621302
H            2.85205774017109       -0.19375146740073       -0.40113102448809
H            1.48893183994856       -1.34195174577795       -0.30404210780239
H            1.97644439918051       -0.67136316819272       -1.88484782658026

          :  Hamiltonian                  GFN2-xTB          :
         :: total energy             -23.459262331392 Eh    ::
         :: gradient norm              0.000603899619 Eh/a0 ::
         :: HOMO-LUMO gap              8.480570903125 eV    ::
         :: SCC energy               -23.579656269447 Eh    ::
         :: -> dispersion             -0.007067755455 Eh    ::
         :: repulsion energy           0.120392035887 Eh    ::

    * Orbital Energies and Occupations

         #    Occupation            Energy/Eh            Energy/eV
      -------------------------------------------------------------
         1        2.0000           -0.5695785             -15.4990
       ...           ...                  ...                  ...
         7        2.0000           -0.3906485             -10.6301
         8        2.0000           -0.3881928             -10.5633
         9        2.0000           -0.3815859             -10.3835
        10        2.0000           -0.3240558              -8.8180
        11        2.0000           -0.3182553              -8.6602
        12        2.0000           -0.3103440              -8.4449
        13        2.0000           -0.2765839              -7.5262
        14        2.0000           -0.2590783              -7.0499
        15        2.0000           -0.2537623              -6.9052
        16        2.0000           -0.2514224              -6.8416
        17        2.0000           -0.2398975              -6.5279
        18        2.0000           -0.2385870              -6.4923
        19        2.0000           -0.2283898              -6.2148 (HOMO)
        20                          0.0832654               2.2658 (LUMO)
        21                          0.1423285               3.8730
        22                          0.2098271               5.7097
        23                          0.2373930               6.4598
        24                          0.2735605               7.4440
        25                          0.3005049               8.1772
        26                          0.3302286               8.9860
        27                          0.3622756               9.8580
        28                          0.4243278              11.5465
        29                          0.4504164              12.2565
        30                          0.9436130              25.6770
       ...                                ...                  ...
        32                          1.4196243              38.6299
      -------------------------------------------------------------
                  HL-Gap            0.3116552 Eh            8.4806 eV

     #   Z          covCN         q      C6AA      α(0)
     1  16 S        3.712     1.437    95.010    16.405
     2   8 O        0.860    -0.708    28.927     7.211
     3   8 O        0.860    -0.708    28.929     7.211
     4   8 O        1.706    -0.483    22.516     6.407
     5   6 C        3.901     0.067    19.410     6.263
     6   8 O        0.860    -0.677    28.095     7.107
     7   1 H        0.924     0.016     2.792     2.613
     8   1 H        0.925     0.041     2.435     2.440
     9   1 H        0.924     0.016     2.793     2.613

Wiberg/Mayer (AO) data.
largest (>0.10) Wiberg bond orders for each atom

     #   Z sym  total        # sym  WBO       # sym  WBO       # sym  WBO
 ---------------------------------------------------------------------------
     1  16 S    5.056 --     6 O    1.451     3 O    1.406     2 O    1.406
                             4 O    0.776
     2   8 O    1.726 --     1 S    1.406     3 O    0.122     6 O    0.119
     3   8 O    1.726 --     1 S    1.406     2 O    0.122     6 O    0.119
     4   8 O    2.023 --     5 C    1.010     1 S    0.776
     5   6 C    3.958 --     4 O    1.010     9 H    0.979     7 H    0.979
                             8 H    0.974
     6   8 O    1.762 --     1 S    1.451     2 O    0.119     3 O    0.119
     7   1 H    1.000 --     5 C    0.979
     8   1 H    0.998 --     5 C    0.974
     9   1 H    1.000 --     5 C    0.979
 ---------------------------------------------------------------------------

molecular dipole:
                 x           y           z       tot (Debye)
 q only:        0.972      -0.204      -0.831
   full:        1.204      -0.225      -0.964       3.961

           -------------------------------------------------
          | TOTAL ENERGY              -23.459262331392 Eh   |
          | GRADIENT NORM               0.000603899619 Eh/α |
          | HOMO-LUMO GAP               8.480570903125 eV   |
           -------------------------------------------------

 * finished run on 2022/11/03 at 12:53:52.040
