   * xtb version 6.5.1 (b24c23e) compiled by 'conda@728c89f4b128' on 2022-07-12
          program call               : /home/chase/psi4conda/envs/xtbenv/bin/xtb --gfn 2 --chrg -1 --uhf 0 mso4-opt-1-4-150_preQMOPTprefit_xyzformat.xyz --opt --input xtb-opt-1-4-150_constr.txt

   ID    Z sym.   atoms
    1   16 S      1
    2    8 O      2-4, 6
    3    6 C      5
    4    1 H      7-9
constraining angle 2 1 4 5 to  150.0473790°, actual value:  150.0473790°
constraining angle 1 4 5 7 to   60.9888592°, actual value:   60.9888592°

          :  Hamiltonian                  GFN2-xTB          :
 * total energy  :   -23.4522093 Eh     change       -0.2536282E-10 Eh
 * total energy  :   -23.4560630 Eh     change       -0.3853778E-02 Eh
 * total energy  :   -23.4575644 Eh     change       -0.1501357E-02 Eh
 * total energy  :   -23.4575994 Eh     change       -0.3496934E-04 Eh
 * total energy  :   -23.4576052 Eh     change       -0.5781296E-05 Eh
 * total energy  :   -23.4576065 Eh     change       -0.1368475E-05 Eh
   *** GEOMETRY OPTIMIZATION CONVERGED AFTER 6 ITERATIONS ***

 final structure:
================
9
 xtb: 6.5.1 (b24c23e)
S           -0.44144963737878       -0.02261293237851       -0.29020916436782
O           -1.16371423884554        1.16240448507675       -0.70221331954901
O           -0.95223833599474       -1.26996299393094       -0.82742608107500
O            1.05927728959788        0.16886011280276       -1.02653682104929
C            2.02820678388204       -0.44644932211239       -0.25376243960535
O           -0.16249954391779       -0.07114503398952        1.13633849036759
H            1.81895146967521       -1.52065758884392       -0.16727492710507
H            3.00109750601701       -0.30135204615005       -0.73698918872701
H            2.03805470696469       -0.02387968047418        0.75514046111096

          :  Hamiltonian                  GFN2-xTB          :
         :: total energy             -23.457606524311 Eh    ::
         :: gradient norm              0.000794310066 Eh/a0 ::
         :: HOMO-LUMO gap              8.475482762935 eV    ::
         :: SCC energy               -23.578029430524 Eh    ::
         :: -> dispersion             -0.007045400745 Eh    ::
         :: repulsion energy           0.120413321976 Eh    ::

    * Orbital Energies and Occupations

         #    Occupation            Energy/Eh            Energy/eV
      -------------------------------------------------------------
         1        2.0000           -0.5690045             -15.4834
       ...           ...                  ...                  ...
         7        2.0000           -0.3910134             -10.6400
         8        2.0000           -0.3880913             -10.5605
         9        2.0000           -0.3829937             -10.4218
        10        2.0000           -0.3225101              -8.7759
        11        2.0000           -0.3178505              -8.6492
        12        2.0000           -0.3140248              -8.5451
        13        2.0000           -0.2749475              -7.4817
        14        2.0000           -0.2565635              -6.9814
        15        2.0000           -0.2540326              -6.9126
        16        2.0000           -0.2481989              -6.7538
        17        2.0000           -0.2389200              -6.5013
        18        2.0000           -0.2379974              -6.4762
        19        2.0000           -0.2271676              -6.1815 (HOMO)
        20                          0.0843007               2.2939 (LUMO)
        21                          0.1446938               3.9373
        22                          0.2020684               5.4986
        23                          0.2317379               6.3059
        24                          0.2716637               7.3923
        25                          0.3083505               8.3906
        26                          0.3323433               9.0435
        27                          0.3499531               9.5227
        28                          0.4355248              11.8512
        29                          0.4490364              12.2189
        30                          0.9385697              25.5398
       ...                                ...                  ...
        32                          1.4075162              38.3005
      -------------------------------------------------------------
                  HL-Gap            0.3114683 Eh            8.4755 eV

     #   Z          covCN         q      C6AA      α(0)
     1  16 S        3.683     1.426    95.281    16.429
     2   8 O        0.860    -0.681    28.189     7.118
     3   8 O        0.860    -0.697    28.637     7.175
     4   8 O        1.706    -0.483    22.500     6.404
     5   6 C        3.873     0.069    19.387     6.261
     6   8 O        0.860    -0.707    28.890     7.206
     7   1 H        0.924     0.018     2.762     2.599
     8   1 H        0.924     0.018     2.768     2.602
     9   1 H        0.924     0.037     2.487     2.466

Wiberg/Mayer (AO) data.
largest (>0.10) Wiberg bond orders for each atom

     #   Z sym  total        # sym  WBO       # sym  WBO       # sym  WBO
 ---------------------------------------------------------------------------
     1  16 S    5.066 --     2 O    1.445     3 O    1.420     6 O    1.410
                             4 O    0.774
     2   8 O    1.758 --     1 S    1.445     3 O    0.122     6 O    0.117
     3   8 O    1.738 --     1 S    1.420     2 O    0.122     6 O    0.120
     4   8 O    2.024 --     5 C    1.010     1 S    0.774
     5   6 C    3.958 --     4 O    1.010     8 H    0.979     7 H    0.979
                             9 H    0.974
     6   8 O    1.730 --     1 S    1.410     3 O    0.120     2 O    0.117
     7   1 H    1.000 --     5 C    0.979
     8   1 H    1.000 --     5 C    0.979
     9   1 H    0.999 --     5 C    0.974
 ---------------------------------------------------------------------------

molecular dipole:
                 x           y           z       tot (Debye)
 q only:        1.384      -0.064       0.620
   full:        1.646      -0.111       0.584       4.449

           -------------------------------------------------
          | TOTAL ENERGY              -23.457606524311 Eh   |
          | GRADIENT NORM               0.000794310066 Eh/α |
          | HOMO-LUMO GAP               8.475482762935 eV   |
           -------------------------------------------------

 * finished run on 2022/11/03 at 12:58:11.662
