   * xtb version 6.5.1 (b24c23e) compiled by 'conda@728c89f4b128' on 2022-07-12
          program call               : /home/chase/psi4conda/envs/xtbenv/bin/xtb --gfn 2 --chrg -1 --uhf 0 mso4-opt-1-4-060_preQMOPTprefit_xyzformat.xyz --opt --input xtb-opt-1-4-060_constr.txt

   ID    Z sym.   atoms
    1   16 S      1
    2    8 O      2-4, 6
    3    6 C      5
    4    1 H      7-9
constraining angle 2 1 4 5 to   60.0012623°, actual value:   60.0012623°
constraining angle 1 4 5 7 to   60.9998650°, actual value:   60.9998650°

          :  Hamiltonian                  GFN2-xTB          :
 * total energy  :   -23.4545131 Eh     change       -0.4273915E-10 Eh
 * total energy  :   -23.4589903 Eh     change       -0.4477257E-02 Eh
 * total energy  :   -23.4608032 Eh     change       -0.1812880E-02 Eh
 * total energy  :   -23.4608665 Eh     change       -0.6329581E-04 Eh
 * total energy  :   -23.4608821 Eh     change       -0.1564667E-04 Eh
 * total energy  :   -23.4608849 Eh     change       -0.2802183E-05 Eh
 * total energy  :   -23.4608858 Eh     change       -0.8556559E-06 Eh
   *** GEOMETRY OPTIMIZATION CONVERGED AFTER 7 ITERATIONS ***

 final structure:
================
9
 xtb: 6.5.1 (b24c23e)
S           -0.36409046463790       -0.20184207789557        0.18023583730958
O           -0.67377585235604       -1.15111720910650       -0.87589985772054
O           -1.08331517694457       -0.42032268366445        1.41581699407933
O            1.22676923016199       -0.53711839728436        0.59193546333421
C            1.97252029131691       -0.33868534739487       -0.56055350023388
O           -0.33903490189313        1.17998780815040       -0.26923881658310
H            1.87778810709685        0.70316988933573       -0.88673740994091
H            3.01939724572631       -0.57690626196360       -0.34800245879231
H            1.58942552152953       -0.98195772017679       -1.36048925145237

          :  Hamiltonian                  GFN2-xTB          :
         :: total energy             -23.460885792923 Eh    ::
         :: gradient norm              0.000341109861 Eh/a0 ::
         :: HOMO-LUMO gap              8.562714837983 eV    ::
         :: SCC energy               -23.581418380399 Eh    ::
         :: -> dispersion             -0.007088892779 Eh    ::
         :: repulsion energy           0.120530771216 Eh    ::

    * Orbital Energies and Occupations

         #    Occupation            Energy/Eh            Energy/eV
      -------------------------------------------------------------
         1        2.0000           -0.5688151             -15.4782
       ...           ...                  ...                  ...
         7        2.0000           -0.3896975             -10.6042
         8        2.0000           -0.3864495             -10.5158
         9        2.0000           -0.3819219             -10.3926
        10        2.0000           -0.3234663              -8.8020
        11        2.0000           -0.3164780              -8.6118
        12        2.0000           -0.3151906              -8.5768
        13        2.0000           -0.2687578              -7.3133
        14        2.0000           -0.2573791              -7.0036
        15        2.0000           -0.2538896              -6.9087
        16        2.0000           -0.2535339              -6.8990
        17        2.0000           -0.2398825              -6.5275
        18        2.0000           -0.2390067              -6.5037
        19        2.0000           -0.2274625              -6.1896 (HOMO)
        20                          0.0872115               2.3731 (LUMO)
        21                          0.1463362               3.9820
        22                          0.2121704               5.7735
        23                          0.2366875               6.4406
        24                          0.2703009               7.3553
        25                          0.2936807               7.9915
        26                          0.3390562               9.2262
        27                          0.3543011               9.6410
        28                          0.4328238              11.7777
        29                          0.4510393              12.2734
        30                          0.9450331              25.7157
       ...                                ...                  ...
        32                          1.4137613              38.4704
      -------------------------------------------------------------
                  HL-Gap            0.3146740 Eh            8.5627 eV

     #   Z          covCN         q      C6AA      α(0)
     1  16 S        3.760     1.435    95.052    16.409
     2   8 O        0.860    -0.708    28.938     7.212
     3   8 O        0.860    -0.678    28.127     7.111
     4   8 O        1.706    -0.482    22.485     6.402
     5   6 C        3.950     0.062    19.471     6.270
     6   8 O        0.860    -0.708    28.937     7.212
     7   1 H        0.924     0.030     2.582     2.513
     8   1 H        0.924     0.018     2.763     2.599
     9   1 H        0.924     0.032     2.564     2.504

Wiberg/Mayer (AO) data.
largest (>0.10) Wiberg bond orders for each atom

     #   Z sym  total        # sym  WBO       # sym  WBO       # sym  WBO
 ---------------------------------------------------------------------------
     1  16 S    5.056 --     3 O    1.450     6 O    1.406     2 O    1.405
                             4 O    0.779
     2   8 O    1.726 --     1 S    1.405     6 O    0.120     3 O    0.119
     3   8 O    1.761 --     1 S    1.450     6 O    0.119     2 O    0.119
     4   8 O    2.025 --     5 C    1.008     1 S    0.779
     5   6 C    3.956 --     4 O    1.008     8 H    0.980     7 H    0.976
                             9 H    0.975
     6   8 O    1.725 --     1 S    1.406     2 O    0.120     3 O    0.119
     7   1 H    0.999 --     5 C    0.976
     8   1 H    1.000 --     5 C    0.980
     9   1 H    0.999 --     5 C    0.975
 ---------------------------------------------------------------------------

molecular dipole:
                 x           y           z       tot (Debye)
 q only:        1.178       0.364      -0.542
   full:        1.434       0.340      -0.589       4.033

           -------------------------------------------------
          | TOTAL ENERGY              -23.460885792923 Eh   |
          | GRADIENT NORM               0.000341109861 Eh/α |
          | HOMO-LUMO GAP               8.562714837983 eV   |
           -------------------------------------------------

 * finished run on 2022/11/03 at 12:55:49.592
