   * xtb version 6.5.1 (b24c23e) compiled by 'conda@728c89f4b128' on 2022-07-12
          program call               : /home/chase/psi4conda/envs/xtbenv/bin/xtb --gfn 2 --chrg -1 --uhf 0 mso4-opt-1-4-000_preQMOPTprefit_xyzformat.xyz --opt --input xtb-opt-1-4-000_constr.txt

   ID    Z sym.   atoms
    1   16 S      1
    2    8 O      2-4, 6
    3    6 C      5
    4    1 H      7-9
constraining angle 2 1 4 5 to    0.0000147°, actual value:    0.0000147°
constraining angle 1 4 5 7 to   60.9945380°, actual value:   60.9945380°

          :  Hamiltonian                  GFN2-xTB          :
 * total energy  :   -23.4502332 Eh     change       -0.1112745E-09 Eh
 * total energy  :   -23.4535952 Eh     change       -0.3362076E-02 Eh
 * total energy  :   -23.4549392 Eh     change       -0.1344001E-02 Eh
 * total energy  :   -23.4549628 Eh     change       -0.2354579E-04 Eh
 * total energy  :   -23.4549643 Eh     change       -0.1534885E-05 Eh
 * total energy  :   -23.4549655 Eh     change       -0.1224898E-05 Eh
   *** GEOMETRY OPTIMIZATION CONVERGED AFTER 6 ITERATIONS ***

 final structure:
================
9
 xtb: 6.5.1 (b24c23e)
S           -0.39884124650297       -0.04939220196132        0.17812490147606
O           -0.50566961908122       -0.57905192636114       -1.17146813160938
O           -0.91847086183433       -0.93389586175596        1.20294015072482
O            1.25562662350486        0.01664718174783        0.50407890052783
C            2.00180658511663       -0.43549888310030       -0.56756771331090
O           -0.83288256951879        1.32798078555226        0.30858141147960
H            1.82798989100389        0.18289031164480       -1.45534566703834
H            3.06159909155654       -0.38799836672794       -0.28889814795946
H            1.73452710575539       -1.46647304903822       -0.82337869429021

          :  Hamiltonian                  GFN2-xTB          :
         :: total energy             -23.454965539998 Eh    ::
         :: gradient norm              0.000326090508 Eh/a0 ::
         :: HOMO-LUMO gap              8.373161030467 eV    ::
         :: SCC energy               -23.575206281181 Eh    ::
         :: -> dispersion             -0.007009429263 Eh    ::
         :: repulsion energy           0.120238626547 Eh    ::

    * Orbital Energies and Occupations

         #    Occupation            Energy/Eh            Energy/eV
      -------------------------------------------------------------
         1        2.0000           -0.5692271             -15.4895
       ...           ...                  ...                  ...
         7        2.0000           -0.3915593             -10.6549
         8        2.0000           -0.3893413             -10.5945
         9        2.0000           -0.3834113             -10.4332
        10        2.0000           -0.3207882              -8.7291
        11        2.0000           -0.3197265              -8.7002
        12        2.0000           -0.3122353              -8.4964
        13        2.0000           -0.2796145              -7.6087
        14        2.0000           -0.2573300              -7.0023
        15        2.0000           -0.2528768              -6.8811
        16        2.0000           -0.2450770              -6.6689
        17        2.0000           -0.2382197              -6.4823
        18        2.0000           -0.2376896              -6.4679
        19        2.0000           -0.2263488              -6.1593 (HOMO)
        20                          0.0813592               2.2139 (LUMO)
        21                          0.1433194               3.8999
        22                          0.1962097               5.3391
        23                          0.2261667               6.1543
        24                          0.2699839               7.3466
        25                          0.3202414               8.7142
        26                          0.3363052               9.1513
        27                          0.3418035               9.3009
        28                          0.4390754              11.9479
        29                          0.4421230              12.0308
        30                          0.9327224              25.3807
       ...                                ...                  ...
        32                          1.4040731              38.2068
      -------------------------------------------------------------
                  HL-Gap            0.3077080 Eh            8.3732 eV

     #   Z          covCN         q      C6AA      α(0)
     1  16 S        3.633     1.420    95.426    16.441
     2   8 O        0.860    -0.703    28.803     7.196
     3   8 O        0.860    -0.687    28.359     7.140
     4   8 O        1.706    -0.484    22.533     6.409
     5   6 C        3.824     0.075    19.320     6.255
     6   8 O        0.860    -0.687    28.356     7.140
     7   1 H        0.924     0.024     2.671     2.556
     8   1 H        0.924     0.017     2.772     2.604
     9   1 H        0.924     0.026     2.648     2.545

Wiberg/Mayer (AO) data.
largest (>0.10) Wiberg bond orders for each atom

     #   Z sym  total        # sym  WBO       # sym  WBO       # sym  WBO
 ---------------------------------------------------------------------------
     1  16 S    5.071 --     6 O    1.435     3 O    1.434     2 O    1.417
                             4 O    0.768
     2   8 O    1.734 --     1 S    1.417     3 O    0.119     6 O    0.119
     3   8 O    1.750 --     1 S    1.434     6 O    0.124     2 O    0.119
     4   8 O    2.021 --     5 C    1.012     1 S    0.768
     5   6 C    3.960 --     4 O    1.012     7 H    0.978     8 H    0.978
                             9 H    0.978
     6   8 O    1.750 --     1 S    1.435     3 O    0.124     2 O    0.119
     7   1 H    0.999 --     5 C    0.978
     8   1 H    1.000 --     5 C    0.978
     9   1 H    0.999 --     5 C    0.978
 ---------------------------------------------------------------------------

molecular dipole:
                 x           y           z       tot (Debye)
 q only:        1.279      -0.027      -0.585
   full:        1.547      -0.059      -0.643       4.260

           -------------------------------------------------
          | TOTAL ENERGY              -23.454965539998 Eh   |
          | GRADIENT NORM               0.000326090508 Eh/α |
          | HOMO-LUMO GAP               8.373161030467 eV   |
           -------------------------------------------------

 * finished run on 2022/11/03 at 12:55:17.616
