   * xtb version 6.5.1 (b24c23e) compiled by 'conda@728c89f4b128' on 2022-07-12
          program call               : /home/chase/psi4conda/envs/xtbenv/bin/xtb --gfn 2 --chrg -1 --uhf 0 mso4-opt-1-4-270_preQMOPTprefit_xyzformat.xyz --opt --input xtb-opt-1-4-270_constr.txt

   ID    Z sym.   atoms
    1   16 S      1
    2    8 O      2-4, 6
    3    6 C      5
    4    1 H      7-9
constraining angle 2 1 4 5 to  270.0474536°, actual value:  -89.9525464°
constraining angle 1 4 5 7 to   60.9873751°, actual value:   60.9873751°

          :  Hamiltonian                  GFN2-xTB          :
 * total energy  :   -23.4522596 Eh     change       -0.6689760E-11 Eh
 * total energy  :   -23.4560919 Eh     change       -0.3832372E-02 Eh
 * total energy  :   -23.4575843 Eh     change       -0.1492328E-02 Eh
 * total energy  :   -23.4576175 Eh     change       -0.3320185E-04 Eh
 * total energy  :   -23.4576231 Eh     change       -0.5589670E-05 Eh
 * total energy  :   -23.4576240 Eh     change       -0.9728905E-06 Eh
   *** GEOMETRY OPTIMIZATION CONVERGED AFTER 6 ITERATIONS ***

 final structure:
================
9
 xtb: 6.5.1 (b24c23e)
S           -0.39143662254700        0.08970105650658       -0.00490067183570
O           -0.88929205549733        0.34480644033083       -1.34438078675055
O           -0.37451910785758       -1.31479966258562        0.36875660258109
O            1.22332100768743        0.55807789708579       -0.06375217474849
C            1.99682618564636       -0.52599256995953       -0.43923832442447
O           -0.94734792724391        0.96756494840853        1.00392392132932
H            1.70035908594155       -0.87696698109472       -1.43632388645640
H            3.04685898474708       -0.21276720912781       -0.45932508637031
H            1.86091545912339       -1.35441592956405        0.26230440667550

          :  Hamiltonian                  GFN2-xTB          :
         :: total energy             -23.457624040557 Eh    ::
         :: gradient norm              0.000459474362 Eh/a0 ::
         :: HOMO-LUMO gap              8.467779451981 eV    ::
         :: SCC energy               -23.577977789073 Eh    ::
         :: -> dispersion             -0.007044430898 Eh    ::
         :: repulsion energy           0.120344523198 Eh    ::

    * Orbital Energies and Occupations

         #    Occupation            Energy/Eh            Energy/eV
      -------------------------------------------------------------
         1        2.0000           -0.5690710             -15.4852
       ...           ...                  ...                  ...
         7        2.0000           -0.3913301             -10.6486
         8        2.0000           -0.3885540             -10.5731
         9        2.0000           -0.3832664             -10.4292
        10        2.0000           -0.3225094              -8.7759
        11        2.0000           -0.3178258              -8.6485
        12        2.0000           -0.3143004              -8.5525
        13        2.0000           -0.2750911              -7.4856
        14        2.0000           -0.2576507              -7.0110
        15        2.0000           -0.2537662              -6.9053
        16        2.0000           -0.2478636              -6.7447
        17        2.0000           -0.2387611              -6.4970
        18        2.0000           -0.2381926              -6.4816
        19        2.0000           -0.2269812              -6.1765 (HOMO)
        20                          0.0842039               2.2913 (LUMO)
        21                          0.1449263               3.9436
        22                          0.2027700               5.5177
        23                          0.2295799               6.2472
        24                          0.2711366               7.3780
        25                          0.3086771               8.3995
        26                          0.3328667               9.0578
        27                          0.3490140               9.4972
        28                          0.4361501              11.8682
        29                          0.4477059              12.1827
        30                          0.9386016              25.5406
       ...                                ...                  ...
        32                          1.4106555              38.3859
      -------------------------------------------------------------
                  HL-Gap            0.3111852 Eh            8.4678 eV

     #   Z          covCN         q      C6AA      α(0)
     1  16 S        3.685     1.425    95.285    16.429
     2   8 O        0.860    -0.698    28.646     7.176
     3   8 O        0.860    -0.706    28.865     7.203
     4   8 O        1.706    -0.482    22.487     6.402
     5   6 C        3.876     0.069    19.387     6.261
     6   8 O        0.860    -0.681    28.200     7.120
     7   1 H        0.924     0.018     2.765     2.601
     8   1 H        0.924     0.018     2.765     2.600
     9   1 H        0.924     0.037     2.496     2.470

Wiberg/Mayer (AO) data.
largest (>0.10) Wiberg bond orders for each atom

     #   Z sym  total        # sym  WBO       # sym  WBO       # sym  WBO
 ---------------------------------------------------------------------------
     1  16 S    5.066 --     6 O    1.445     2 O    1.420     3 O    1.411
                             4 O    0.774
     2   8 O    1.737 --     1 S    1.420     6 O    0.122     3 O    0.120
     3   8 O    1.731 --     1 S    1.411     2 O    0.120     6 O    0.118
     4   8 O    2.024 --     5 C    1.011     1 S    0.774
     5   6 C    3.958 --     4 O    1.011     8 H    0.979     7 H    0.979
                             9 H    0.974
     6   8 O    1.757 --     1 S    1.445     2 O    0.122     3 O    0.118
     7   1 H    1.000 --     5 C    0.979
     8   1 H    1.000 --     5 C    0.979
     9   1 H    0.999 --     5 C    0.974
 ---------------------------------------------------------------------------

molecular dipole:
                 x           y           z       tot (Debye)
 q only:        1.272      -0.412      -0.070
   full:        1.540      -0.462      -0.125       4.098

           -------------------------------------------------
          | TOTAL ENERGY              -23.457624040557 Eh   |
          | GRADIENT NORM               0.000459474362 Eh/α |
          | HOMO-LUMO GAP               8.467779451981 eV   |
           -------------------------------------------------

 * finished run on 2022/11/03 at 12:56:44.421
