   * xtb version 6.5.1 (b24c23e) compiled by 'conda@728c89f4b128' on 2022-07-12
          program call               : /home/chase/psi4conda/envs/xtbenv/bin/xtb --gfn 2 --chrg -1 --uhf 0 mso4-opt-4-5-331_preQMOPTprefit_xyzformat.xyz --opt --input xtb-opt-4-5-331_constr.txt

   ID    Z sym.   atoms
    1   16 S      1
    2    8 O      2-4, 6
    3    6 C      5
    4    1 H      7-9
constraining angle 1 4 5 7 to  330.9792023°, actual value:  -29.0207977°
constraining angle 2 1 4 5 to  300.0086822°, actual value:  -59.9913178°

          :  Hamiltonian                  GFN2-xTB          :
 * total energy  :   -23.4537769 Eh     change       -0.2426219E-09 Eh
 * total energy  :   -23.4583515 Eh     change       -0.4574558E-02 Eh
 * total energy  :   -23.4600353 Eh     change       -0.1683759E-02 Eh
 * total energy  :   -23.4600955 Eh     change       -0.6025699E-04 Eh
 * total energy  :   -23.4601148 Eh     change       -0.1928844E-04 Eh
 * total energy  :   -23.4601184 Eh     change       -0.3630142E-05 Eh
 * total energy  :   -23.4601194 Eh     change       -0.9664193E-06 Eh
   *** GEOMETRY OPTIMIZATION CONVERGED AFTER 7 ITERATIONS ***

 final structure:
================
9
 xtb: 6.5.1 (b24c23e)
S           -0.36409199364561        0.14220911322390       -0.03528269346684
O           -0.28659384164915        0.71496949021618       -1.36792707351804
O           -0.73637618000486       -1.26370041400628       -0.03160471102768
O            1.21910062994582        0.16370944156221        0.52010156995312
C            1.96978251079852       -0.60578818765814       -0.35674538851978
O           -1.06694391001581        0.95381588026808        0.93323908264227
H            1.32533898375171       -1.37583102135024       -0.78994800816531
H            2.36496579184986        0.01238628917346       -1.17348925767835
H            2.80050100896953       -1.06656359142915        0.18872047978062

          :  Hamiltonian                  GFN2-xTB          :
         :: total energy             -23.460119401406 Eh    ::
         :: gradient norm              0.000649421724 Eh/a0 ::
         :: HOMO-LUMO gap              8.525170618469 eV    ::
         :: SCC energy               -23.580519068177 Eh    ::
         :: -> dispersion             -0.007078076353 Eh    ::
         :: repulsion energy           0.120396940385 Eh    ::

    * Orbital Energies and Occupations

         #    Occupation            Energy/Eh            Energy/eV
      -------------------------------------------------------------
         1        2.0000           -0.5693258             -15.4921
       ...           ...                  ...                  ...
         7        2.0000           -0.3898753             -10.6090
         8        2.0000           -0.3875948             -10.5470
         9        2.0000           -0.3816517             -10.3853
        10        2.0000           -0.3239506              -8.8151
        11        2.0000           -0.3174868              -8.6393
        12        2.0000           -0.3126574              -8.5078
        13        2.0000           -0.2726444              -7.4190
        14        2.0000           -0.2587051              -7.0397
        15        2.0000           -0.2551945              -6.9442
        16        2.0000           -0.2512822              -6.8377
        17        2.0000           -0.2398714              -6.5272
        18        2.0000           -0.2388761              -6.5001
        19        2.0000           -0.2280678              -6.2060 (HOMO)
        20                          0.0852264               2.3191 (LUMO)
        21                          0.1442845               3.9262
        22                          0.2117972               5.7633
        23                          0.2371607               6.4535
        24                          0.2722068               7.4071
        25                          0.2963124               8.0631
        26                          0.3410491               9.2804
        27                          0.3509952               9.5511
        28                          0.4293313              11.6827
        29                          0.4506460              12.2627
        30                          0.9443239              25.6964
       ...                                ...                  ...
        32                          1.4168375              38.5541
      -------------------------------------------------------------
                  HL-Gap            0.3132943 Eh            8.5252 eV

     #   Z          covCN         q      C6AA      α(0)
     1  16 S        3.734     1.436    95.019    16.406
     2   8 O        0.860    -0.707    28.912     7.209
     3   8 O        0.860    -0.709    28.953     7.214
     4   8 O        1.706    -0.483    22.500     6.404
     5   6 C        3.924     0.064    19.451     6.268
     6   8 O        0.860    -0.678    28.106     7.108
     7   1 H        0.924     0.040     2.446     2.446
     8   1 H        0.924     0.019     2.750     2.593
     9   1 H        0.924     0.018     2.771     2.603

Wiberg/Mayer (AO) data.
largest (>0.10) Wiberg bond orders for each atom

     #   Z sym  total        # sym  WBO       # sym  WBO       # sym  WBO
 ---------------------------------------------------------------------------
     1  16 S    5.055 --     6 O    1.451     2 O    1.409     3 O    1.401
                             4 O    0.778
     2   8 O    1.725 --     1 S    1.409     3 O    0.121     6 O    0.120
     3   8 O    1.727 --     1 S    1.401     2 O    0.121     6 O    0.119
     4   8 O    2.025 --     5 C    1.009     1 S    0.778
     5   6 C    3.957 --     4 O    1.009     9 H    0.980     8 H    0.978
                             7 H    0.972
     6   8 O    1.761 --     1 S    1.451     2 O    0.120     3 O    0.119
     7   1 H    0.998 --     5 C    0.972
     8   1 H    1.000 --     5 C    0.978
     9   1 H    1.000 --     5 C    0.980
 ---------------------------------------------------------------------------

molecular dipole:
                 x           y           z       tot (Debye)
 q only:        1.152      -0.460      -0.033
   full:        1.409      -0.521      -0.038       3.820

           -------------------------------------------------
          | TOTAL ENERGY              -23.460119401406 Eh   |
          | GRADIENT NORM               0.000649421724 Eh/α |
          | HOMO-LUMO GAP               8.525170618469 eV   |
           -------------------------------------------------

 * finished run on 2022/11/03 at 12:54:16.718
