   * xtb version 6.5.1 (b24c23e) compiled by 'conda@728c89f4b128' on 2022-07-12
          program call               : /home/chase/psi4conda/envs/xtbenv/bin/xtb --gfn 2 --chrg -1 --uhf 0 mso4-opt-1-4-180_preQMOPTprefit_xyzformat.xyz --opt --input xtb-opt-1-4-180_constr.txt

   ID    Z sym.   atoms
    1   16 S      1
    2    8 O      2-4, 6
    3    6 C      5
    4    1 H      7-9
constraining angle 2 1 4 5 to  179.9997114°, actual value:  179.9997114°
constraining angle 1 4 5 7 to   60.9992587°, actual value:   60.9992587°

          :  Hamiltonian                  GFN2-xTB          :
 * total energy  :   -23.4545091 Eh     change       -0.2000178E-11 Eh
 * total energy  :   -23.4589964 Eh     change       -0.4487320E-02 Eh
 * total energy  :   -23.4608046 Eh     change       -0.1808222E-02 Eh
 * total energy  :   -23.4608669 Eh     change       -0.6228959E-04 Eh
 * total energy  :   -23.4608835 Eh     change       -0.1657740E-04 Eh
 * total energy  :   -23.4608853 Eh     change       -0.1829809E-05 Eh
 * total energy  :   -23.4608857 Eh     change       -0.3501249E-06 Eh
 * total energy  :   -23.4608858 Eh     change       -0.1574962E-06 Eh
   *** GEOMETRY OPTIMIZATION CONVERGED AFTER 8 ITERATIONS ***

 final structure:
================
9
 xtb: 6.5.1 (b24c23e)
S           -0.39985934682808        0.04254311860675       -0.23653017065594
O           -1.27500654036045        0.99332384868666       -0.88590309722629
O           -0.63441703155931       -1.34433132141800       -0.60254376424093
O            1.10672234909961        0.39711478562898       -0.88215359049155
C            1.99613243317175       -0.48930912056359       -0.29292475941315
O           -0.23987337378955        0.24673548224618        1.19373171272668
H            1.71107039600032       -1.51793562701789       -0.54080523109501
H            3.00399366400291       -0.27472057434339       -0.66210345659435
H            1.95692445026280       -0.37821559182570        0.79629836699055

          :  Hamiltonian                  GFN2-xTB          :
         :: total energy             -23.460885819418 Eh    ::
         :: gradient norm              0.000198031954 Eh/a0 ::
         :: HOMO-LUMO gap              8.561588816254 eV    ::
         :: SCC energy               -23.581377766152 Eh    ::
         :: -> dispersion             -0.007088698996 Eh    ::
         :: repulsion energy           0.120490139068 Eh    ::

    * Orbital Energies and Occupations

         #    Occupation            Energy/Eh            Energy/eV
      -------------------------------------------------------------
         1        2.0000           -0.5688190             -15.4784
       ...           ...                  ...                  ...
         7        2.0000           -0.3897085             -10.6045
         8        2.0000           -0.3864788             -10.5166
         9        2.0000           -0.3819501             -10.3934
        10        2.0000           -0.3234525              -8.8016
        11        2.0000           -0.3164719              -8.6116
        12        2.0000           -0.3151921              -8.5768
        13        2.0000           -0.2687907              -7.3142
        14        2.0000           -0.2573860              -7.0038
        15        2.0000           -0.2539110              -6.9093
        16        2.0000           -0.2535005              -6.8981
        17        2.0000           -0.2398719              -6.5272
        18        2.0000           -0.2389736              -6.5028
        19        2.0000           -0.2274416              -6.1890 (HOMO)
        20                          0.0871910               2.3726 (LUMO)
        21                          0.1463592               3.9826
        22                          0.2120786               5.7710
        23                          0.2365833               6.4378
        24                          0.2702423               7.3537
        25                          0.2935762               7.9886
        26                          0.3391129               9.2277
        27                          0.3541819               9.6378
        28                          0.4327657              11.7762
        29                          0.4510727              12.2743
        30                          0.9450027              25.7148
       ...                                ...                  ...
        32                          1.4136114              38.4663
      -------------------------------------------------------------
                  HL-Gap            0.3146326 Eh            8.5616 eV

     #   Z          covCN         q      C6AA      α(0)
     1  16 S        3.760     1.435    95.053    16.409
     2   8 O        0.860    -0.678    28.125     7.110
     3   8 O        0.860    -0.708    28.937     7.212
     4   8 O        1.706    -0.482    22.484     6.402
     5   6 C        3.950     0.062    19.471     6.270
     6   8 O        0.860    -0.709    28.941     7.213
     7   1 H        0.924     0.030     2.583     2.514
     8   1 H        0.924     0.018     2.763     2.599
     9   1 H        0.924     0.032     2.562     2.503

Wiberg/Mayer (AO) data.
largest (>0.10) Wiberg bond orders for each atom

     #   Z sym  total        # sym  WBO       # sym  WBO       # sym  WBO
 ---------------------------------------------------------------------------
     1  16 S    5.055 --     2 O    1.450     3 O    1.405     6 O    1.405
                             4 O    0.779
     2   8 O    1.761 --     1 S    1.450     3 O    0.119     6 O    0.119
     3   8 O    1.725 --     1 S    1.405     6 O    0.120     2 O    0.119
     4   8 O    2.025 --     5 C    1.008     1 S    0.779
     5   6 C    3.956 --     4 O    1.008     8 H    0.980     7 H    0.976
                             9 H    0.975
     6   8 O    1.725 --     1 S    1.405     3 O    0.120     2 O    0.119
     7   1 H    0.999 --     5 C    0.976
     8   1 H    1.000 --     5 C    0.980
     9   1 H    0.999 --     5 C    0.975
 ---------------------------------------------------------------------------

molecular dipole:
                 x           y           z       tot (Debye)
 q only:        1.266      -0.227       0.466
   full:        1.523      -0.258       0.436       4.080

           -------------------------------------------------
          | TOTAL ENERGY              -23.460885819418 Eh   |
          | GRADIENT NORM               0.000198031954 Eh/α |
          | HOMO-LUMO GAP               8.561588816254 eV   |
           -------------------------------------------------

 * finished run on 2022/11/03 at 12:57:48.634
