   * xtb version 6.5.1 (b24c23e) compiled by 'conda@728c89f4b128' on 2022-07-12
          program call               : /home/chase/psi4conda/envs/xtbenv/bin/xtb --gfn 2 --chrg -1 --uhf 0 mso4-opt-1-4-330_preQMOPTprefit_xyzformat.xyz --opt --input xtb-opt-1-4-330_constr.txt

   ID    Z sym.   atoms
    1   16 S      1
    2    8 O      2-4, 6
    3    6 C      5
    4    1 H      7-9
constraining angle 2 1 4 5 to  329.9531986°, actual value:  -30.0468014°
constraining angle 1 4 5 7 to   61.0064637°, actual value:   61.0064637°

          :  Hamiltonian                  GFN2-xTB          :
 * total energy  :   -23.4521929 Eh     change       -0.2714629E-10 Eh
 * total energy  :   -23.4560638 Eh     change       -0.3870875E-02 Eh
 * total energy  :   -23.4575682 Eh     change       -0.1504404E-02 Eh
 * total energy  :   -23.4576149 Eh     change       -0.4672725E-04 Eh
 * total energy  :   -23.4576356 Eh     change       -0.2066676E-04 Eh
 * total energy  :   -23.4576386 Eh     change       -0.3000065E-05 Eh
 * total energy  :   -23.4576401 Eh     change       -0.1477311E-05 Eh
   *** GEOMETRY OPTIMIZATION CONVERGED AFTER 7 ITERATIONS ***

 final structure:
================
9
 xtb: 6.5.1 (b24c23e)
S           -0.37780180041182        0.01530295283715        0.12961799710399
O           -0.50912437368619       -0.26293806431590       -1.29130013012575
O           -0.68054166472267       -1.13423273854772        0.96395156904223
O            1.26472054470862        0.27998347836350        0.38068660191659
C            1.98540377833522       -0.46617251866716       -0.53516574221851
O           -0.98716076481187        1.25186136511741        0.56842952296983
H            1.73971243996405       -0.16244689414927       -1.55721425390643
H            3.05281836419377       -0.31602185721980       -0.33950311124226
H            1.73765846643086       -1.53012772341818       -0.43243743353969

          :  Hamiltonian                  GFN2-xTB          :
         :: total energy             -23.457640051645 Eh    ::
         :: gradient norm              0.000491856007 Eh/a0 ::
         :: HOMO-LUMO gap              8.474877838579 eV    ::
         :: SCC energy               -23.578169027952 Eh    ::
         :: -> dispersion             -0.007049866555 Eh    ::
         :: repulsion energy           0.120519128183 Eh    ::

    * Orbital Energies and Occupations

         #    Occupation            Energy/Eh            Energy/eV
      -------------------------------------------------------------
         1        2.0000           -0.5689520             -15.4820
       ...           ...                  ...                  ...
         7        2.0000           -0.3909710             -10.6389
         8        2.0000           -0.3879248             -10.5560
         9        2.0000           -0.3828513             -10.4179
        10        2.0000           -0.3220964              -8.7647
        11        2.0000           -0.3176706              -8.6443
        12        2.0000           -0.3143072              -8.5527
        13        2.0000           -0.2751617              -7.4875
        14        2.0000           -0.2568042              -6.9880
        15        2.0000           -0.2546403              -6.9291
        16        2.0000           -0.2471166              -6.7244
        17        2.0000           -0.2394231              -6.5150
        18        2.0000           -0.2376521              -6.4668
        19        2.0000           -0.2269180              -6.1748 (HOMO)
        20                          0.0845280               2.3001 (LUMO)
        21                          0.1447083               3.9377
        22                          0.2048366               5.5739
        23                          0.2283136               6.2127
        24                          0.2717536               7.3948
        25                          0.3103176               8.4442
        26                          0.3333310               9.0704
        27                          0.3488017               9.4914
        28                          0.4332860              11.7903
        29                          0.4511259              12.2758
        30                          0.9387711              25.5453
       ...                                ...                  ...
        32                          1.4086097              38.3302
      -------------------------------------------------------------
                  HL-Gap            0.3114460 Eh            8.4749 eV

     #   Z          covCN         q      C6AA      α(0)
     1  16 S        3.689     1.426    95.268    16.428
     2   8 O        0.860    -0.707    28.887     7.206
     3   8 O        0.860    -0.699    28.683     7.180
     4   8 O        1.706    -0.483    22.505     6.405
     5   6 C        3.879     0.069    19.376     6.258
     6   8 O        0.860    -0.680    28.170     7.116
     7   1 H        0.924     0.035     2.520     2.482
     8   1 H        0.924     0.018     2.768     2.602
     9   1 H        0.924     0.021     2.726     2.582

Wiberg/Mayer (AO) data.
largest (>0.10) Wiberg bond orders for each atom

     #   Z sym  total        # sym  WBO       # sym  WBO       # sym  WBO
 ---------------------------------------------------------------------------
     1  16 S    5.065 --     6 O    1.447     3 O    1.418     2 O    1.410
                             4 O    0.773
     2   8 O    1.730 --     1 S    1.410     3 O    0.119     6 O    0.118
     3   8 O    1.735 --     1 S    1.418     6 O    0.122     2 O    0.119
     4   8 O    2.023 --     5 C    1.010     1 S    0.773
     5   6 C    3.958 --     4 O    1.010     8 H    0.979     9 H    0.979
                             7 H    0.975
     6   8 O    1.759 --     1 S    1.447     3 O    0.122     2 O    0.118
     7   1 H    0.999 --     5 C    0.975
     8   1 H    1.000 --     5 C    0.979
     9   1 H    1.000 --     5 C    0.979
 ---------------------------------------------------------------------------

molecular dipole:
                 x           y           z       tot (Debye)
 q only:        1.220      -0.115      -0.478
   full:        1.480      -0.141      -0.527       4.009

           -------------------------------------------------
          | TOTAL ENERGY              -23.457640051645 Eh   |
          | GRADIENT NORM               0.000491856007 Eh/α |
          | HOMO-LUMO GAP               8.474877838579 eV   |
           -------------------------------------------------

 * finished run on 2022/11/03 at 12:55:04.735
