   * xtb version 6.5.1 (b24c23e) compiled by 'conda@728c89f4b128' on 2022-07-12
          program call               : /home/chase/psi4conda/envs/xtbenv/bin/xtb --gfn 2 --chrg -1 --uhf 0 mso4-opt-4-5-301_preQMOPTprefit_xyzformat.xyz --opt --input xtb-opt-4-5-301_constr.txt

   ID    Z sym.   atoms
    1   16 S      1
    2    8 O      2-4, 6
    3    6 C      5
    4    1 H      7-9
constraining angle 1 4 5 7 to  300.9987761°, actual value:  -59.0012239°
constraining angle 2 1 4 5 to  300.0008814°, actual value:  -59.9991186°

          :  Hamiltonian                  GFN2-xTB          :
 * total energy  :   -23.4545081 Eh     change       -0.2181046E-09 Eh
 * total energy  :   -23.4589921 Eh     change       -0.4483967E-02 Eh
 * total energy  :   -23.4608047 Eh     change       -0.1812671E-02 Eh
 * total energy  :   -23.4608685 Eh     change       -0.6380422E-04 Eh
 * total energy  :   -23.4608842 Eh     change       -0.1565549E-04 Eh
 * total energy  :   -23.4608875 Eh     change       -0.3318393E-05 Eh
 * total energy  :   -23.4608883 Eh     change       -0.8276786E-06 Eh
   *** GEOMETRY OPTIMIZATION CONVERGED AFTER 7 ITERATIONS ***

 final structure:
================
9
 xtb: 6.5.1 (b24c23e)
S           -0.34396152436587        0.17851281371231       -0.05904161141288
O           -0.13851366109568        0.91506684941280       -1.29493978239773
O           -0.77841597480265       -1.19308046433588       -0.26492623659776
O            1.18995690089346        0.03732588859179        0.60416583371005
C            1.94979757096212       -0.65428902053677       -0.32754084257907
O           -1.08260849714866        0.89814384232686        0.95496350393440
H            1.49550321516456       -1.63288299905862       -0.51883009146359
H            1.96968056826333       -0.09858044076032       -1.27176556900405
H            2.96424440212939       -0.77500847935217        0.06497979581065

          :  Hamiltonian                  GFN2-xTB          :
         :: total energy             -23.460888341341 Eh    ::
         :: gradient norm              0.000380382301 Eh/a0 ::
         :: HOMO-LUMO gap              8.562972367028 eV    ::
         :: SCC energy               -23.581422479174 Eh    ::
         :: -> dispersion             -0.007088979457 Eh    ::
         :: repulsion energy           0.120532321492 Eh    ::

    * Orbital Energies and Occupations

         #    Occupation            Energy/Eh            Energy/eV
      -------------------------------------------------------------
         1        2.0000           -0.5688143             -15.4782
       ...           ...                  ...                  ...
         7        2.0000           -0.3897070             -10.6045
         8        2.0000           -0.3864275             -10.5152
         9        2.0000           -0.3819255             -10.3927
        10        2.0000           -0.3234640              -8.8019
        11        2.0000           -0.3164794              -8.6118
        12        2.0000           -0.3152105              -8.5773
        13        2.0000           -0.2687241              -7.3124
        14        2.0000           -0.2573685              -7.0034
        15        2.0000           -0.2538491              -6.9076
        16        2.0000           -0.2535975              -6.9007
        17        2.0000           -0.2398797              -6.5275
        18        2.0000           -0.2390133              -6.5039
        19        2.0000           -0.2274629              -6.1896 (HOMO)
        20                          0.0872205               2.3734 (LUMO)
        21                          0.1463474               3.9823
        22                          0.2121394               5.7726
        23                          0.2367025               6.4410
        24                          0.2702959               7.3551
        25                          0.2936960               7.9919
        26                          0.3388699               9.2211
        27                          0.3545228               9.6471
        28                          0.4328451              11.7783
        29                          0.4510232              12.2730
        30                          0.9450481              25.7161
       ...                                ...                  ...
        32                          1.4137958              38.4713
      -------------------------------------------------------------
                  HL-Gap            0.3146834 Eh            8.5630 eV

     #   Z          covCN         q      C6AA      α(0)
     1  16 S        3.760     1.435    95.052    16.409
     2   8 O        0.860    -0.708    28.936     7.212
     3   8 O        0.860    -0.708    28.939     7.213
     4   8 O        1.706    -0.482    22.485     6.402
     5   6 C        3.950     0.062    19.471     6.270
     6   8 O        0.860    -0.678    28.127     7.111
     7   1 H        0.924     0.031     2.570     2.507
     8   1 H        0.924     0.031     2.576     2.510
     9   1 H        0.924     0.018     2.762     2.599

Wiberg/Mayer (AO) data.
largest (>0.10) Wiberg bond orders for each atom

     #   Z sym  total        # sym  WBO       # sym  WBO       # sym  WBO
 ---------------------------------------------------------------------------
     1  16 S    5.055 --     6 O    1.450     2 O    1.405     3 O    1.405
                             4 O    0.779
     2   8 O    1.726 --     1 S    1.405     3 O    0.120     6 O    0.119
     3   8 O    1.725 --     1 S    1.405     2 O    0.120     6 O    0.119
     4   8 O    2.025 --     5 C    1.008     1 S    0.779
     5   6 C    3.956 --     4 O    1.008     9 H    0.980     8 H    0.976
                             7 H    0.975
     6   8 O    1.761 --     1 S    1.450     2 O    0.119     3 O    0.119
     7   1 H    0.999 --     5 C    0.975
     8   1 H    0.999 --     5 C    0.976
     9   1 H    1.000 --     5 C    0.980
 ---------------------------------------------------------------------------

molecular dipole:
                 x           y           z       tot (Debye)
 q only:        1.133      -0.535       0.013
   full:        1.382      -0.609       0.015       3.840

           -------------------------------------------------
          | TOTAL ENERGY              -23.460888341341 Eh   |
          | GRADIENT NORM               0.000380382301 Eh/α |
          | HOMO-LUMO GAP               8.562972367028 eV   |
           -------------------------------------------------

 * finished run on 2022/11/03 at 12:54:27.009
