   * xtb version 6.5.1 (b24c23e) compiled by 'conda@728c89f4b128' on 2022-07-12
          program call               : /home/chase/psi4conda/envs/xtbenv/bin/xtb --gfn 2 --chrg -1 --uhf 0 mso4-opt-4-5-151_preQMOPTprefit_xyzformat.xyz --opt --input xtb-opt-4-5-151_constr.txt

   ID    Z sym.   atoms
    1   16 S      1
    2    8 O      2-4, 6
    3    6 C      5
    4    1 H      7-9
constraining angle 1 4 5 7 to  151.0202100°, actual value:  151.0202100°
constraining angle 2 1 4 5 to  299.9906067°, actual value:  -60.0093933°

          :  Hamiltonian                  GFN2-xTB          :
 * total energy  :   -23.4538781 Eh     change       -0.2185772E-09 Eh
 * total energy  :   -23.4584372 Eh     change       -0.4559021E-02 Eh
 * total energy  :   -23.4601253 Eh     change       -0.1688099E-02 Eh
 * total energy  :   -23.4601890 Eh     change       -0.6373506E-04 Eh
 * total energy  :   -23.4602064 Eh     change       -0.1738329E-04 Eh
 * total energy  :   -23.4602086 Eh     change       -0.2240252E-05 Eh
   *** GEOMETRY OPTIMIZATION CONVERGED AFTER 6 ITERATIONS ***

 final structure:
================
9
 xtb: 6.5.1 (b24c23e)
S           -0.33925442011401        0.00929178316281        0.19377443476284
O           -0.83312177892803       -0.61340751316881       -1.02390779629117
O           -0.04760674750272       -0.94258681672259        1.25121943556187
O            1.15959277637403        0.63431062122024       -0.22854368322417
C            1.94158459197888       -0.43345082939635       -0.64388604516658
O           -1.08024153766298        1.17689706698185        0.61658530076096
H            2.67399414522739       -0.07793076492859       -1.37737499033237
H            2.45689969960731       -0.89475918847557        0.20737809601091
H            1.29383725102014       -1.18315533867298       -1.10817976208229

          :  Hamiltonian                  GFN2-xTB          :
         :: total energy             -23.460208621910 Eh    ::
         :: gradient norm              0.000818426550 Eh/a0 ::
         :: HOMO-LUMO gap              8.531106835241 eV    ::
         :: SCC energy               -23.580686165577 Eh    ::
         :: -> dispersion             -0.007079955863 Eh    ::
         :: repulsion energy           0.120475353313 Eh    ::

    * Orbital Energies and Occupations

         #    Occupation            Energy/Eh            Energy/eV
      -------------------------------------------------------------
         1        2.0000           -0.5692514             -15.4901
       ...           ...                  ...                  ...
         7        2.0000           -0.3898428             -10.6082
         8        2.0000           -0.3874591             -10.5433
         9        2.0000           -0.3816732             -10.3859
        10        2.0000           -0.3239732              -8.8158
        11        2.0000           -0.3173385              -8.6352
        12        2.0000           -0.3125802              -8.5057
        13        2.0000           -0.2724876              -7.4148
        14        2.0000           -0.2585995              -7.0369
        15        2.0000           -0.2550673              -6.9407
        16        2.0000           -0.2513869              -6.8406
        17        2.0000           -0.2398690              -6.5272
        18        2.0000           -0.2388976              -6.5007
        19        2.0000           -0.2280094              -6.2045 (HOMO)
        20                          0.0855030               2.3267 (LUMO)
        21                          0.1444793               3.9315
        22                          0.2124528               5.7811
        23                          0.2371189               6.4523
        24                          0.2723049               7.4098
        25                          0.2957707               8.0483
        26                          0.3433769               9.3438
        27                          0.3485025               9.4832
        28                          0.4299377              11.6992
        29                          0.4507214              12.2648
        30                          0.9445335              25.7021
       ...                                ...                  ...
        32                          1.4164562              38.5437
      -------------------------------------------------------------
                  HL-Gap            0.3135124 Eh            8.5311 eV

     #   Z          covCN         q      C6AA      α(0)
     1  16 S        3.737     1.436    95.022    16.406
     2   8 O        0.860    -0.709    28.950     7.214
     3   8 O        0.860    -0.707    28.912     7.209
     4   8 O        1.706    -0.483    22.499     6.404
     5   6 C        3.927     0.064    19.450     6.268
     6   8 O        0.860    -0.678    28.109     7.108
     7   1 H        0.924     0.017     2.776     2.606
     8   1 H        0.924     0.020     2.729     2.583
     9   1 H        0.924     0.039     2.459     2.452

Wiberg/Mayer (AO) data.
largest (>0.10) Wiberg bond orders for each atom

     #   Z sym  total        # sym  WBO       # sym  WBO       # sym  WBO
 ---------------------------------------------------------------------------
     1  16 S    5.055 --     6 O    1.451     3 O    1.409     2 O    1.401
                             4 O    0.778
     2   8 O    1.727 --     1 S    1.401     3 O    0.121     6 O    0.119
     3   8 O    1.725 --     1 S    1.409     2 O    0.121     6 O    0.120
     4   8 O    2.025 --     5 C    1.009     1 S    0.778
     5   6 C    3.957 --     4 O    1.009     7 H    0.980     8 H    0.978
                             9 H    0.972
     6   8 O    1.761 --     1 S    1.451     3 O    0.120     2 O    0.119
     7   1 H    1.000 --     5 C    0.980
     8   1 H    1.000 --     5 C    0.978
     9   1 H    0.998 --     5 C    0.972
 ---------------------------------------------------------------------------

molecular dipole:
                 x           y           z       tot (Debye)
 q only:        1.097      -0.156      -0.553
   full:        1.345      -0.168      -0.641       3.812

           -------------------------------------------------
          | TOTAL ENERGY              -23.460208621910 Eh   |
          | GRADIENT NORM               0.000818426550 Eh/α |
          | HOMO-LUMO GAP               8.531106835241 eV   |
           -------------------------------------------------

 * finished run on 2022/11/03 at 12:53:36.456
