   * xtb version 6.5.1 (b24c23e) compiled by 'conda@728c89f4b128' on 2022-07-12
          program call               : /home/chase/psi4conda/envs/xtbenv/bin/xtb --gfn 2 --chrg -1 --uhf 0 mso4-opt-4-5-121_preQMOPTprefit_xyzformat.xyz --opt --input xtb-opt-4-5-121_constr.txt

   ID    Z sym.   atoms
    1   16 S      1
    2    8 O      2-4, 6
    3    6 C      5
    4    1 H      7-9
constraining angle 1 4 5 7 to  121.0001333°, actual value:  121.0001333°
constraining angle 2 1 4 5 to  300.0007758°, actual value:  -59.9992242°

          :  Hamiltonian                  GFN2-xTB          :
 * total energy  :   -23.4530712 Eh     change       -0.2053007E-09 Eh
 * total energy  :   -23.4575851 Eh     change       -0.4513943E-02 Eh
 * total energy  :   -23.4591883 Eh     change       -0.1603206E-02 Eh
 * total energy  :   -23.4592473 Eh     change       -0.5899087E-04 Eh
 * total energy  :   -23.4592604 Eh     change       -0.1310769E-04 Eh
 * total energy  :   -23.4592628 Eh     change       -0.2410299E-05 Eh
 * total energy  :   -23.4592634 Eh     change       -0.5894369E-06 Eh
   *** GEOMETRY OPTIMIZATION CONVERGED AFTER 7 ITERATIONS ***

 final structure:
================
9
 xtb: 6.5.1 (b24c23e)
S           -0.36292954756455        0.01639975789733        0.15368064085934
O           -0.80280920133769       -0.40098173696670       -1.16709821629659
O           -0.20725400740161       -1.08968443369289        1.08334729993330
O            1.19642274606074        0.59319010840390       -0.08267206070734
C            1.96346343372291       -0.44299679892993       -0.59447481436834
O           -1.05977311212673        1.16459695673145        0.68921584975948
H            2.38027616678673       -0.15914608223039       -1.56967891142124
H            2.78661159305463       -0.68146088771246        0.09178085079919
H            1.33167593880558       -1.32470888350031       -0.71703563855779

          :  Hamiltonian                  GFN2-xTB          :
         :: total energy             -23.459263400215 Eh    ::
         :: gradient norm              0.000446612995 Eh/a0 ::
         :: HOMO-LUMO gap              8.479777968737 eV    ::
         :: SCC energy               -23.579651791862 Eh    ::
         :: -> dispersion             -0.007067820289 Eh    ::
         :: repulsion energy           0.120386498447 Eh    ::

    * Orbital Energies and Occupations

         #    Occupation            Energy/Eh            Energy/eV
      -------------------------------------------------------------
         1        2.0000           -0.5695808             -15.4991
       ...           ...                  ...                  ...
         7        2.0000           -0.3906720             -10.6307
         8        2.0000           -0.3881698             -10.5626
         9        2.0000           -0.3815903             -10.3836
        10        2.0000           -0.3240638              -8.8182
        11        2.0000           -0.3182540              -8.6601
        12        2.0000           -0.3103209              -8.4443
        13        2.0000           -0.2765945              -7.5265
        14        2.0000           -0.2590672              -7.0496
        15        2.0000           -0.2537731              -6.9055
        16        2.0000           -0.2514350              -6.8419
        17        2.0000           -0.2398963              -6.5279
        18        2.0000           -0.2385933              -6.4925
        19        2.0000           -0.2283944              -6.2149 (HOMO)
        20                          0.0832317               2.2649 (LUMO)
        21                          0.1423163               3.8726
        22                          0.2098098               5.7092
        23                          0.2373940               6.4598
        24                          0.2735518               7.4437
        25                          0.3004140               8.1747
        26                          0.3304807               8.9928
        27                          0.3621342               9.8542
        28                          0.4243235              11.5464
        29                          0.4504023              12.2561
        30                          0.9435603              25.6756
       ...                                ...                  ...
        32                          1.4195272              38.6273
      -------------------------------------------------------------
                  HL-Gap            0.3116261 Eh            8.4798 eV

     #   Z          covCN         q      C6AA      α(0)
     1  16 S        3.712     1.437    95.010    16.405
     2   8 O        0.860    -0.708    28.928     7.211
     3   8 O        0.860    -0.708    28.928     7.211
     4   8 O        1.706    -0.483    22.516     6.407
     5   6 C        3.901     0.067    19.411     6.263
     6   8 O        0.860    -0.677    28.095     7.107
     7   1 H        0.924     0.016     2.792     2.613
     8   1 H        0.924     0.016     2.791     2.613
     9   1 H        0.925     0.041     2.436     2.441

Wiberg/Mayer (AO) data.
largest (>0.10) Wiberg bond orders for each atom

     #   Z sym  total        # sym  WBO       # sym  WBO       # sym  WBO
 ---------------------------------------------------------------------------
     1  16 S    5.056 --     6 O    1.451     3 O    1.406     2 O    1.406
                             4 O    0.776
     2   8 O    1.726 --     1 S    1.406     3 O    0.122     6 O    0.119
     3   8 O    1.726 --     1 S    1.406     2 O    0.122     6 O    0.119
     4   8 O    2.023 --     5 C    1.010     1 S    0.776
     5   6 C    3.958 --     4 O    1.010     7 H    0.979     8 H    0.979
                             9 H    0.974
     6   8 O    1.762 --     1 S    1.451     3 O    0.119     2 O    0.119
     7   1 H    1.000 --     5 C    0.979
     8   1 H    1.000 --     5 C    0.979
     9   1 H    0.998 --     5 C    0.974
 ---------------------------------------------------------------------------

molecular dipole:
                 x           y           z       tot (Debye)
 q only:        1.139      -0.178      -0.453
   full:        1.396      -0.196      -0.526       3.824

           -------------------------------------------------
          | TOTAL ENERGY              -23.459263400215 Eh   |
          | GRADIENT NORM               0.000446612995 Eh/α |
          | HOMO-LUMO GAP               8.479777968737 eV   |
           -------------------------------------------------

 * finished run on 2022/11/03 at 12:53:31.421
