   * xtb version 6.5.1 (b24c23e) compiled by 'conda@728c89f4b128' on 2022-07-12
          program call               : /home/chase/psi4conda/envs/xtbenv/bin/xtb --gfn 2 --chrg -1 --uhf 0 mso4-opt-4-5-181_preQMOPTprefit_xyzformat.xyz --opt --input xtb-opt-4-5-181_constr.txt

   ID    Z sym.   atoms
    1   16 S      1
    2    8 O      2-4, 6
    3    6 C      5
    4    1 H      7-9
constraining angle 1 4 5 7 to  180.9962897°, actual value: -179.0037103°
constraining angle 2 1 4 5 to  300.0001229°, actual value:  -59.9998771°

          :  Hamiltonian                  GFN2-xTB          :
 * total energy  :   -23.4545081 Eh     change       -0.1961169E-09 Eh
 * total energy  :   -23.4589947 Eh     change       -0.4486690E-02 Eh
 * total energy  :   -23.4608083 Eh     change       -0.1813523E-02 Eh
 * total energy  :   -23.4608693 Eh     change       -0.6107033E-04 Eh
 * total energy  :   -23.4608851 Eh     change       -0.1580686E-04 Eh
 * total energy  :   -23.4608870 Eh     change       -0.1894670E-05 Eh
   *** GEOMETRY OPTIMIZATION CONVERGED AFTER 6 ITERATIONS ***

 final structure:
================
9
 xtb: 6.5.1 (b24c23e)
S           -0.31351830850263        0.00846514276820        0.23419151833254
O           -0.84545429357114       -0.78406098395421       -0.86148191081871
O            0.10074845857115       -0.78551472986227        1.37873013175787
O            1.11361313703997        0.65077271818832       -0.36864260323137
C            1.91310753329648       -0.43267310393661       -0.70159394055754
O           -1.09519778398180        1.17945564384499        0.56507445895425
H            2.86849079415814       -0.06196353544206       -1.08546318773716
H            2.07477210483682       -1.05568978056499        0.18515529693564
H            1.40912335815299       -1.04358137104137       -1.45890375363553

          :  Hamiltonian                  GFN2-xTB          :
         :: total energy             -23.460887043021 Eh    ::
         :: gradient norm              0.000603570515 Eh/a0 ::
         :: HOMO-LUMO gap              8.565858472975 eV    ::
         :: SCC energy               -23.581487878924 Eh    ::
         :: -> dispersion             -0.007089003842 Eh    ::
         :: repulsion energy           0.120599012552 Eh    ::

    * Orbital Energies and Occupations

         #    Occupation            Energy/Eh            Energy/eV
      -------------------------------------------------------------
         1        2.0000           -0.5688005             -15.4779
       ...           ...                  ...                  ...
         7        2.0000           -0.3896812             -10.6038
         8        2.0000           -0.3864012             -10.5145
         9        2.0000           -0.3819117             -10.3923
        10        2.0000           -0.3234739              -8.8022
        11        2.0000           -0.3164684              -8.6115
        12        2.0000           -0.3152091              -8.5773
        13        2.0000           -0.2687140              -7.3121
        14        2.0000           -0.2573775              -7.0036
        15        2.0000           -0.2538941              -6.9088
        16        2.0000           -0.2535299              -6.8989
        17        2.0000           -0.2398789              -6.5274
        18        2.0000           -0.2390208              -6.5041
        19        2.0000           -0.2274653              -6.1896 (HOMO)
        20                          0.0873242               2.3762 (LUMO)
        21                          0.1463732               3.9830
        22                          0.2121777               5.7736
        23                          0.2368150               6.4441
        24                          0.2705920               7.3632
        25                          0.2937358               7.9930
        26                          0.3389607               9.2236
        27                          0.3544421               9.6449
        28                          0.4329589              11.7814
        29                          0.4510209              12.2729
        30                          0.9452888              25.7226
       ...                                ...                  ...
        32                          1.4140581              38.4785
      -------------------------------------------------------------
                  HL-Gap            0.3147895 Eh            8.5659 eV

     #   Z          covCN         q      C6AA      α(0)
     1  16 S        3.760     1.435    95.049    16.409
     2   8 O        0.860    -0.708    28.935     7.212
     3   8 O        0.860    -0.708    28.939     7.213
     4   8 O        1.706    -0.482    22.486     6.402
     5   6 C        3.950     0.062    19.471     6.270
     6   8 O        0.860    -0.679    28.128     7.111
     7   1 H        0.924     0.018     2.763     2.599
     8   1 H        0.924     0.031     2.566     2.505
     9   1 H        0.924     0.030     2.581     2.512

Wiberg/Mayer (AO) data.
largest (>0.10) Wiberg bond orders for each atom

     #   Z sym  total        # sym  WBO       # sym  WBO       # sym  WBO
 ---------------------------------------------------------------------------
     1  16 S    5.056 --     6 O    1.450     2 O    1.406     3 O    1.405
                             4 O    0.779
     2   8 O    1.726 --     1 S    1.406     3 O    0.120     6 O    0.119
     3   8 O    1.726 --     1 S    1.405     2 O    0.120     6 O    0.119
     4   8 O    2.025 --     5 C    1.008     1 S    0.779
     5   6 C    3.956 --     4 O    1.008     7 H    0.980     9 H    0.976
                             8 H    0.975
     6   8 O    1.760 --     1 S    1.450     2 O    0.119     3 O    0.119
     7   1 H    1.000 --     5 C    0.980
     8   1 H    0.999 --     5 C    0.975
     9   1 H    0.999 --     5 C    0.976
 ---------------------------------------------------------------------------

molecular dipole:
                 x           y           z       tot (Debye)
 q only:        1.064      -0.157      -0.639
   full:        1.304      -0.169      -0.740       3.836

           -------------------------------------------------
          | TOTAL ENERGY              -23.460887043021 Eh   |
          | GRADIENT NORM               0.000603570515 Eh/α |
          | HOMO-LUMO GAP               8.565858472975 eV   |
           -------------------------------------------------

 * finished run on 2022/11/03 at 12:53:40.606
