   * xtb version 6.5.1 (b24c23e) compiled by 'conda@728c89f4b128' on 2022-07-12
          program call               : /home/chase/psi4conda/envs/xtbenv/bin/xtb --gfn 2 --chrg -1 --uhf 0 mso4-opt-1-4-030_preQMOPTprefit_xyzformat.xyz --opt --input xtb-opt-1-4-030_constr.txt

   ID    Z sym.   atoms
    1   16 S      1
    2    8 O      2-4, 6
    3    6 C      5
    4    1 H      7-9
constraining angle 2 1 4 5 to   30.0470122°, actual value:   30.0470122°
constraining angle 1 4 5 7 to   60.9873888°, actual value:   60.9873888°

          :  Hamiltonian                  GFN2-xTB          :
 * total energy  :   -23.4522061 Eh     change       -0.1086775E-10 Eh
 * total energy  :   -23.4560777 Eh     change       -0.3871657E-02 Eh
 * total energy  :   -23.4575739 Eh     change       -0.1496115E-02 Eh
 * total energy  :   -23.4576139 Eh     change       -0.4002658E-04 Eh
 * total energy  :   -23.4576264 Eh     change       -0.1251843E-04 Eh
 * total energy  :   -23.4576289 Eh     change       -0.2520306E-05 Eh
 * total energy  :   -23.4576301 Eh     change       -0.1225105E-05 Eh
   *** GEOMETRY OPTIMIZATION CONVERGED AFTER 7 ITERATIONS ***

 final structure:
================
9
 xtb: 6.5.1 (b24c23e)
S           -0.38297545488907       -0.12961323077414        0.19284026738571
O           -0.54211382989461       -0.88766139051368       -1.03775416942650
O           -1.05291250327886       -0.69093904421226        1.34583861614620
O            1.24660377562929       -0.26090494443129        0.58941052084091
C            1.98816702243769       -0.39104322988357       -0.57158629522387
O           -0.58883812923537        1.29673084023212        0.01263791167799
H            1.85511189385166        0.49413997112724       -1.20666960003191
H            3.04428889166387       -0.49025879895247       -0.29706753318341
H            1.65835334371536       -1.26524318259195       -1.14058171818509

          :  Hamiltonian                  GFN2-xTB          :
         :: total energy             -23.457630149890 Eh    ::
         :: gradient norm              0.000684029608 Eh/a0 ::
         :: HOMO-LUMO gap              8.472190375776 eV    ::
         :: SCC energy               -23.578071087423 Eh    ::
         :: -> dispersion             -0.007046091371 Eh    ::
         :: repulsion energy           0.120430490683 Eh    ::

    * Orbital Energies and Occupations

         #    Occupation            Energy/Eh            Energy/eV
      -------------------------------------------------------------
         1        2.0000           -0.5689844             -15.4829
       ...           ...                  ...                  ...
         7        2.0000           -0.3910041             -10.6398
         8        2.0000           -0.3880192             -10.5585
         9        2.0000           -0.3829336             -10.4202
        10        2.0000           -0.3221849              -8.7671
        11        2.0000           -0.3179325              -8.6514
        12        2.0000           -0.3140240              -8.5450
        13        2.0000           -0.2750028              -7.4832
        14        2.0000           -0.2570488              -6.9947
        15        2.0000           -0.2545001              -6.9253
        16        2.0000           -0.2472458              -6.7279
        17        2.0000           -0.2393068              -6.5119
        18        2.0000           -0.2376339              -6.4663
        19        2.0000           -0.2269129              -6.1746 (HOMO)
        20                          0.0844344               2.2976 (LUMO)
        21                          0.1447518               3.9389
        22                          0.2045482               5.5660
        23                          0.2285743               6.2198
        24                          0.2713778               7.3846
        25                          0.3096717               8.4266
        26                          0.3330978               9.0641
        27                          0.3500313               9.5248
        28                          0.4332539              11.7894
        29                          0.4510564              12.2739
        30                          0.9388294              25.5468
       ...                                ...                  ...
        32                          1.4078317              38.3090
      -------------------------------------------------------------
                  HL-Gap            0.3113473 Eh            8.4722 eV

     #   Z          covCN         q      C6AA      α(0)
     1  16 S        3.684     1.426    95.282    16.429
     2   8 O        0.860    -0.706    28.883     7.206
     3   8 O        0.860    -0.680    28.170     7.116
     4   8 O        1.706    -0.483    22.500     6.404
     5   6 C        3.875     0.069    19.389     6.261
     6   8 O        0.860    -0.699    28.674     7.179
     7   1 H        0.924     0.019     2.745     2.591
     8   1 H        0.924     0.018     2.767     2.601
     9   1 H        0.924     0.037     2.495     2.470

Wiberg/Mayer (AO) data.
largest (>0.10) Wiberg bond orders for each atom

     #   Z sym  total        # sym  WBO       # sym  WBO       # sym  WBO
 ---------------------------------------------------------------------------
     1  16 S    5.066 --     3 O    1.446     6 O    1.419     2 O    1.410
                             4 O    0.774
     2   8 O    1.730 --     1 S    1.410     6 O    0.119     3 O    0.118
     3   8 O    1.759 --     1 S    1.446     6 O    0.122     2 O    0.118
     4   8 O    2.024 --     5 C    1.010     1 S    0.774
     5   6 C    3.958 --     4 O    1.010     8 H    0.979     7 H    0.979
                             9 H    0.974
     6   8 O    1.736 --     1 S    1.419     3 O    0.122     2 O    0.119
     7   1 H    1.000 --     5 C    0.979
     8   1 H    1.000 --     5 C    0.979
     9   1 H    0.999 --     5 C    0.974
 ---------------------------------------------------------------------------

molecular dipole:
                 x           y           z       tot (Debye)
 q only:        1.229       0.113      -0.586
   full:        1.489       0.083      -0.634       4.118

           -------------------------------------------------
          | TOTAL ENERGY              -23.457630149890 Eh   |
          | GRADIENT NORM               0.000684029608 Eh/α |
          | HOMO-LUMO GAP               8.472190375776 eV   |
           -------------------------------------------------

 * finished run on 2022/11/03 at 12:55:33.990
