   * xtb version 6.5.1 (b24c23e) compiled by 'conda@728c89f4b128' on 2022-07-12
          program call               : /home/chase/psi4conda/envs/xtbenv/bin/xtb --gfn 2 --chrg -1 --uhf 0 mso4-opt-4-5-091_preQMOPTprefit_xyzformat.xyz --opt --input xtb-opt-4-5-091_constr.txt

   ID    Z sym.   atoms
    1   16 S      1
    2    8 O      2-4, 6
    3    6 C      5
    4    1 H      7-9
constraining angle 1 4 5 7 to   90.9795690°, actual value:   90.9795690°
constraining angle 2 1 4 5 to  300.0108446°, actual value:  -59.9891554°

          :  Hamiltonian                  GFN2-xTB          :
 * total energy  :   -23.4537981 Eh     change       -0.1680363E-09 Eh
 * total energy  :   -23.4583376 Eh     change       -0.4539442E-02 Eh
 * total energy  :   -23.4600205 Eh     change       -0.1682946E-02 Eh
 * total energy  :   -23.4600781 Eh     change       -0.5763654E-04 Eh
 * total energy  :   -23.4600928 Eh     change       -0.1461637E-04 Eh
 * total energy  :   -23.4600959 Eh     change       -0.3100889E-05 Eh
 * total energy  :   -23.4600967 Eh     change       -0.7982306E-06 Eh
   *** GEOMETRY OPTIMIZATION CONVERGED AFTER 7 ITERATIONS ***

 final structure:
================
9
 xtb: 6.5.1 (b24c23e)
S           -0.36422645196937        0.03269803591529        0.11061010607545
O           -0.72148845843871       -0.17089947264833       -1.28254925120307
O           -0.33196289691571       -1.19825706918322        0.88447951782118
O            1.23328536213919        0.54451451266539        0.06105745906409
C            1.96738517329214       -0.46530110641623       -0.54336017202451
O           -1.04548690680915        1.13252294828610        0.75647245896084
H            2.02190631904117       -0.31098176169990       -1.62852216249398
H            2.98283334593728       -0.46463231152238       -0.12929562805830
H            1.48343951372316       -1.42445577539672       -0.34182731814171

          :  Hamiltonian                  GFN2-xTB          :
         :: total energy             -23.460096660146 Eh    ::
         :: gradient norm              0.000351279611 Eh/a0 ::
         :: HOMO-LUMO gap              8.522014768835 eV    ::
         :: SCC energy               -23.580470185585 Eh    ::
         :: -> dispersion             -0.007076203728 Eh    ::
         :: repulsion energy           0.120371065320 Eh    ::

    * Orbital Energies and Occupations

         #    Occupation            Energy/Eh            Energy/eV
      -------------------------------------------------------------
         1        2.0000           -0.5693295             -15.4922
       ...           ...                  ...                  ...
         7        2.0000           -0.3897326             -10.6052
         8        2.0000           -0.3879904             -10.5578
         9        2.0000           -0.3816667             -10.3857
        10        2.0000           -0.3239777              -8.8159
        11        2.0000           -0.3174552              -8.6384
        12        2.0000           -0.3125210              -8.5041
        13        2.0000           -0.2729735              -7.4280
        14        2.0000           -0.2586825              -7.0391
        15        2.0000           -0.2551756              -6.9437
        16        2.0000           -0.2511910              -6.8353
        17        2.0000           -0.2398677              -6.5271
        18        2.0000           -0.2388383              -6.4991
        19        2.0000           -0.2280561              -6.2057 (HOMO)
        20                          0.0851222               2.3163 (LUMO)
        21                          0.1442399               3.9250
        22                          0.2120346               5.7698
        23                          0.2371932               6.4544
        24                          0.2720183               7.4020
        25                          0.2961548               8.0588
        26                          0.3389345               9.2229
        27                          0.3522126               9.5842
        28                          0.4293275              11.6826
        29                          0.4506433              12.2626
        30                          0.9439518              25.6862
       ...                                ...                  ...
        32                          1.4166188              38.5482
      -------------------------------------------------------------
                  HL-Gap            0.3131783 Eh            8.5220 eV

     #   Z          covCN         q      C6AA      α(0)
     1  16 S        3.733     1.436    95.028    16.407
     2   8 O        0.860    -0.707    28.906     7.208
     3   8 O        0.860    -0.709    28.950     7.214
     4   8 O        1.706    -0.483    22.500     6.404
     5   6 C        3.923     0.064    19.443     6.267
     6   8 O        0.860    -0.678    28.104     7.108
     7   1 H        0.924     0.019     2.751     2.594
     8   1 H        0.924     0.017     2.784     2.609
     9   1 H        0.924     0.040     2.442     2.444

Wiberg/Mayer (AO) data.
largest (>0.10) Wiberg bond orders for each atom

     #   Z sym  total        # sym  WBO       # sym  WBO       # sym  WBO
 ---------------------------------------------------------------------------
     1  16 S    5.055 --     6 O    1.451     2 O    1.409     3 O    1.401
                             4 O    0.778
     2   8 O    1.725 --     1 S    1.409     3 O    0.121     6 O    0.120
     3   8 O    1.727 --     1 S    1.401     2 O    0.121     6 O    0.119
     4   8 O    2.025 --     5 C    1.009     1 S    0.778
     5   6 C    3.957 --     4 O    1.009     8 H    0.980     7 H    0.978
                             9 H    0.972
     6   8 O    1.761 --     1 S    1.451     2 O    0.120     3 O    0.119
     7   1 H    1.000 --     5 C    0.978
     8   1 H    1.000 --     5 C    0.980
     9   1 H    0.998 --     5 C    0.972
 ---------------------------------------------------------------------------

molecular dipole:
                 x           y           z       tot (Debye)
 q only:        1.154      -0.216      -0.349
   full:        1.413      -0.236      -0.406       3.785

           -------------------------------------------------
          | TOTAL ENERGY              -23.460096660146 Eh   |
          | GRADIENT NORM               0.000351279611 Eh/α |
          | HOMO-LUMO GAP               8.522014768835 eV   |
           -------------------------------------------------

 * finished run on 2022/11/03 at 12:53:27.842
