   * xtb version 6.5.1 (b24c23e) compiled by 'conda@728c89f4b128' on 2022-07-12
          program call               : /home/chase/psi4conda/envs/xtbenv/bin/xtb --gfn 2 --chrg -1 --uhf 0 mso4-opt-1-4-300_preQMOPTprefit_xyzformat.xyz --opt --input xtb-opt-1-4-300_constr.txt

   ID    Z sym.   atoms
    1   16 S      1
    2    8 O      2-4, 6
    3    6 C      5
    4    1 H      7-9
constraining angle 2 1 4 5 to  300.0012436°, actual value:  -59.9987564°
constraining angle 1 4 5 7 to   60.9992278°, actual value:   60.9992278°

          :  Hamiltonian                  GFN2-xTB          :
 * total energy  :   -23.4544978 Eh     change       -0.1925216E-10 Eh
 * total energy  :   -23.4589838 Eh     change       -0.4485987E-02 Eh
 * total energy  :   -23.4608041 Eh     change       -0.1820306E-02 Eh
 * total energy  :   -23.4608657 Eh     change       -0.6159557E-04 Eh
 * total energy  :   -23.4608821 Eh     change       -0.1639819E-04 Eh
 * total energy  :   -23.4608841 Eh     change       -0.2053386E-05 Eh
 * total energy  :   -23.4608850 Eh     change       -0.8276811E-06 Eh
   *** GEOMETRY OPTIMIZATION CONVERGED AFTER 7 ITERATIONS ***

 final structure:
================
9
 xtb: 6.5.1 (b24c23e)
S           -0.35802863868169        0.05470617672763        0.06828264278371
O           -0.61967056207427        0.04837461268289       -1.36114651028259
O           -0.43560930728250       -1.26149255339994        0.67967257659768
O            1.25884665810759        0.48166015577118        0.19560473314816
C            1.96950903850376       -0.49336155507461       -0.48854000052208
O           -1.03940308556823        1.09958589220935        0.80024354028954
H            1.66299374726046       -0.50393973020146       -1.54063848608167
H            3.03850211773950       -0.27333555274759       -0.40675807501859
H            1.74854501199537       -1.47698943596746       -0.05965642091416

          :  Hamiltonian                  GFN2-xTB          :
         :: total energy             -23.460884962587 Eh    ::
         :: gradient norm              0.000570010042 Eh/a0 ::
         :: HOMO-LUMO gap              8.563965083073 eV    ::
         :: SCC energy               -23.581446404364 Eh    ::
         :: -> dispersion             -0.007088849666 Eh    ::
         :: repulsion energy           0.120559634362 Eh    ::

    * Orbital Energies and Occupations

         #    Occupation            Energy/Eh            Energy/eV
      -------------------------------------------------------------
         1        2.0000           -0.5688110             -15.4781
       ...           ...                  ...                  ...
         7        2.0000           -0.3896894             -10.6040
         8        2.0000           -0.3864498             -10.5158
         9        2.0000           -0.3819283             -10.3928
        10        2.0000           -0.3234766              -8.8022
        11        2.0000           -0.3164743              -8.6117
        12        2.0000           -0.3151945              -8.5769
        13        2.0000           -0.2687584              -7.3133
        14        2.0000           -0.2573648              -7.0033
        15        2.0000           -0.2539851              -6.9113
        16        2.0000           -0.2534558              -6.8969
        17        2.0000           -0.2398723              -6.5273
        18        2.0000           -0.2390189              -6.5040
        19        2.0000           -0.2274673              -6.1897 (HOMO)
        20                          0.0872526               2.3743 (LUMO)
        21                          0.1463507               3.9824
        22                          0.2121356               5.7725
        23                          0.2367836               6.4432
        24                          0.2704829               7.3602
        25                          0.2936420               7.9904
        26                          0.3390888               9.2271
        27                          0.3542125               9.6386
        28                          0.4329085              11.7800
        29                          0.4509970              12.2723
        30                          0.9451283              25.7183
       ...                                ...                  ...
        32                          1.4138720              38.4734
      -------------------------------------------------------------
                  HL-Gap            0.3147199 Eh            8.5640 eV

     #   Z          covCN         q      C6AA      α(0)
     1  16 S        3.760     1.435    95.051    16.409
     2   8 O        0.860    -0.708    28.934     7.212
     3   8 O        0.860    -0.708    28.939     7.213
     4   8 O        1.706    -0.482    22.485     6.402
     5   6 C        3.950     0.062    19.470     6.270
     6   8 O        0.860    -0.679    28.128     7.111
     7   1 H        0.924     0.030     2.586     2.515
     8   1 H        0.924     0.018     2.763     2.600
     9   1 H        0.924     0.032     2.561     2.503

Wiberg/Mayer (AO) data.
largest (>0.10) Wiberg bond orders for each atom

     #   Z sym  total        # sym  WBO       # sym  WBO       # sym  WBO
 ---------------------------------------------------------------------------
     1  16 S    5.056 --     6 O    1.450     2 O    1.406     3 O    1.405
                             4 O    0.779
     2   8 O    1.726 --     1 S    1.406     3 O    0.120     6 O    0.119
     3   8 O    1.726 --     1 S    1.405     2 O    0.120     6 O    0.119
     4   8 O    2.025 --     5 C    1.008     1 S    0.779
     5   6 C    3.956 --     4 O    1.008     8 H    0.980     7 H    0.976
                             9 H    0.975
     6   8 O    1.760 --     1 S    1.450     2 O    0.119     3 O    0.119
     7   1 H    0.999 --     5 C    0.976
     8   1 H    1.000 --     5 C    0.980
     9   1 H    0.999 --     5 C    0.975
 ---------------------------------------------------------------------------

molecular dipole:
                 x           y           z       tot (Debye)
 q only:        1.163      -0.261      -0.270
   full:        1.419      -0.291      -0.311       3.766

           -------------------------------------------------
          | TOTAL ENERGY              -23.460884962587 Eh   |
          | GRADIENT NORM               0.000570010042 Eh/α |
          | HOMO-LUMO GAP               8.563965083073 eV   |
           -------------------------------------------------

 * finished run on 2022/11/03 at 12:54:50.617
