   * xtb version 6.5.1 (b24c23e) compiled by 'conda@728c89f4b128' on 2022-07-12
          program call               : /home/chase/psi4conda/envs/xtbenv/bin/xtb --gfn 2 --chrg -1 --uhf 0 mso4-opt-4-5-031_preQMOPTprefit_xyzformat.xyz --opt --input xtb-opt-4-5-031_constr.txt

   ID    Z sym.   atoms
    1   16 S      1
    2    8 O      2-4, 6
    3    6 C      5
    4    1 H      7-9
constraining angle 1 4 5 7 to   31.0209836°, actual value:   31.0209836°
constraining angle 2 1 4 5 to  299.9915961°, actual value:  -60.0084039°

          :  Hamiltonian                  GFN2-xTB          :
 * total energy  :   -23.4538481 Eh     change       -0.2244960E-10 Eh
 * total energy  :   -23.4584358 Eh     change       -0.4587621E-02 Eh
 * total energy  :   -23.4601138 Eh     change       -0.1678016E-02 Eh
 * total energy  :   -23.4601800 Eh     change       -0.6625092E-04 Eh
 * total energy  :   -23.4602014 Eh     change       -0.2139800E-04 Eh
 * total energy  :   -23.4602062 Eh     change       -0.4728681E-05 Eh
 * total energy  :   -23.4602073 Eh     change       -0.1142561E-05 Eh
   *** GEOMETRY OPTIMIZATION CONVERGED AFTER 7 ITERATIONS ***

 final structure:
================
9
 xtb: 6.5.1 (b24c23e)
S           -0.36914876678494        0.08160512691189        0.02845080219738
O           -0.53454190133514        0.26496563489874       -1.40475725680741
O           -0.55344316592511       -1.29345302006656        0.45884727896797
O            1.25545019444620        0.39173119844307        0.31051825361364
C            1.97828305212196       -0.52586509272425       -0.43780985041407
O           -1.04303360643359        1.06778074858447        0.84340586411696
H            1.41145092259902       -0.76886142247622       -1.34113690133433
H            2.94816818145951       -0.09043354013554       -0.70098697568752
H            2.13250009985209       -1.45226164343561        0.13053278534740

          :  Hamiltonian                  GFN2-xTB          :
         :: total energy             -23.460207297442 Eh    ::
         :: gradient norm              0.000658802997 Eh/a0 ::
         :: HOMO-LUMO gap              8.530599610999 eV    ::
         :: SCC energy               -23.580634568554 Eh    ::
         :: -> dispersion             -0.007080227105 Eh    ::
         :: repulsion energy           0.120424729060 Eh    ::

    * Orbital Energies and Occupations

         #    Occupation            Energy/Eh            Energy/eV
      -------------------------------------------------------------
         1        2.0000           -0.5692739             -15.4907
       ...           ...                  ...                  ...
         7        2.0000           -0.3898259             -10.6077
         8        2.0000           -0.3874492             -10.5430
         9        2.0000           -0.3816414             -10.3850
        10        2.0000           -0.3238825              -8.8133
        11        2.0000           -0.3174293              -8.6377
        12        2.0000           -0.3128672              -8.5136
        13        2.0000           -0.2722675              -7.4088
        14        2.0000           -0.2586463              -7.0381
        15        2.0000           -0.2550450              -6.9401
        16        2.0000           -0.2514260              -6.8416
        17        2.0000           -0.2398960              -6.5279
        18        2.0000           -0.2388944              -6.5006
        19        2.0000           -0.2280174              -6.2047 (HOMO)
        20                          0.0854764               2.3259 (LUMO)
        21                          0.1444746               3.9314
        22                          0.2121534               5.7730
        23                          0.2369546               6.4479
        24                          0.2720743               7.4035
        25                          0.2961780               8.0594
        26                          0.3419207               9.3041
        27                          0.3500833               9.5263
        28                          0.4297036              11.6928
        29                          0.4507574              12.2657
        30                          0.9444638              25.7002
       ...                                ...                  ...
        32                          1.4164576              38.5438
      -------------------------------------------------------------
                  HL-Gap            0.3134938 Eh            8.5306 eV

     #   Z          covCN         q      C6AA      α(0)
     1  16 S        3.738     1.436    95.018    16.406
     2   8 O        0.860    -0.709    28.954     7.214
     3   8 O        0.860    -0.708    28.917     7.210
     4   8 O        1.706    -0.483    22.500     6.404
     5   6 C        3.928     0.064    19.452     6.268
     6   8 O        0.860    -0.678    28.108     7.108
     7   1 H        0.924     0.040     2.453     2.449
     8   1 H        0.924     0.018     2.770     2.603
     9   1 H        0.924     0.020     2.739     2.588

Wiberg/Mayer (AO) data.
largest (>0.10) Wiberg bond orders for each atom

     #   Z sym  total        # sym  WBO       # sym  WBO       # sym  WBO
 ---------------------------------------------------------------------------
     1  16 S    5.055 --     6 O    1.451     3 O    1.409     2 O    1.401
                             4 O    0.778
     2   8 O    1.727 --     1 S    1.401     3 O    0.121     6 O    0.119
     3   8 O    1.725 --     1 S    1.409     2 O    0.121     6 O    0.120
     4   8 O    2.025 --     5 C    1.008     1 S    0.778
     5   6 C    3.957 --     4 O    1.008     8 H    0.980     9 H    0.978
                             7 H    0.972
     6   8 O    1.761 --     1 S    1.451     3 O    0.120     2 O    0.119
     7   1 H    0.998 --     5 C    0.972
     8   1 H    1.000 --     5 C    0.980
     9   1 H    1.000 --     5 C    0.978
 ---------------------------------------------------------------------------

molecular dipole:
                 x           y           z       tot (Debye)
 q only:        1.167      -0.307      -0.190
   full:        1.426      -0.345      -0.216       3.771

           -------------------------------------------------
          | TOTAL ENERGY              -23.460207297442 Eh   |
          | GRADIENT NORM               0.000658802997 Eh/α |
          | HOMO-LUMO GAP               8.530599610999 eV   |
           -------------------------------------------------

 * finished run on 2022/11/03 at 12:53:59.432
