   * xtb version 6.5.1 (b24c23e) compiled by 'conda@728c89f4b128' on 2022-07-12
          program call               : /home/chase/psi4conda/envs/xtbenv/bin/xtb --gfn 2 --chrg -1 --uhf 0 mso4-opt-4-5-001_preQMOPTprefit_xyzformat.xyz --opt --input xtb-opt-4-5-001_constr.txt

   ID    Z sym.   atoms
    1   16 S      1
    2    8 O      2-4, 6
    3    6 C      5
    4    1 H      7-9
constraining angle 1 4 5 7 to    1.0024171°, actual value:    1.0024171°
constraining angle 2 1 4 5 to  300.0020437°, actual value:  -59.9979563°

          :  Hamiltonian                  GFN2-xTB          :
 * total energy  :   -23.4530521 Eh     change       -0.2418119E-09 Eh
 * total energy  :   -23.4575744 Eh     change       -0.4522296E-02 Eh
 * total energy  :   -23.4591915 Eh     change       -0.1617104E-02 Eh
 * total energy  :   -23.4592464 Eh     change       -0.5492899E-04 Eh
 * total energy  :   -23.4592602 Eh     change       -0.1377627E-04 Eh
 * total energy  :   -23.4592622 Eh     change       -0.2014545E-05 Eh
 * total energy  :   -23.4592626 Eh     change       -0.3580850E-06 Eh
 * total energy  :   -23.4592629 Eh     change       -0.3126744E-06 Eh
   *** GEOMETRY OPTIMIZATION CONVERGED AFTER 8 ITERATIONS ***

 final structure:
================
9
 xtb: 6.5.1 (b24c23e)
S           -0.37892836041953        0.11123529813216       -0.00651050870692
O           -0.43311839098226        0.49352513897634       -1.40768161314873
O           -0.67052723775816       -1.29501866423936        0.21645615115376
O            1.23744592917652        0.28081752313981        0.41618471028917
C            1.98261358458242       -0.56372915375644       -0.39347403382821
O           -1.05078688477471        1.01985220678241        0.89550765617924
H            1.31032243548963       -1.07994470364742       -1.08125094482539
H            2.71631077693697        0.01462866756949       -0.97006185017325
H            2.51235215774913       -1.30615931295693        0.21789444306034

          :  Hamiltonian                  GFN2-xTB          :
         :: total energy             -23.459262899276 Eh    ::
         :: gradient norm              0.000560384769 Eh/a0 ::
         :: HOMO-LUMO gap              8.478224896326 eV    ::
         :: SCC energy               -23.579622889350 Eh    ::
         :: -> dispersion             -0.007067710574 Eh    ::
         :: repulsion energy           0.120358100039 Eh    ::

    * Orbital Energies and Occupations

         #    Occupation            Energy/Eh            Energy/eV
      -------------------------------------------------------------
         1        2.0000           -0.5695869             -15.4992
       ...           ...                  ...                  ...
         7        2.0000           -0.3906761             -10.6308
         8        2.0000           -0.3881971             -10.5634
         9        2.0000           -0.3816024             -10.3839
        10        2.0000           -0.3240559              -8.8180
        11        2.0000           -0.3182582              -8.6602
        12        2.0000           -0.3103341              -8.4446
        13        2.0000           -0.2765991              -7.5266
        14        2.0000           -0.2590760              -7.0498
        15        2.0000           -0.2537855              -6.9059
        16        2.0000           -0.2514392              -6.8420
        17        2.0000           -0.2398965              -6.5279
        18        2.0000           -0.2385782              -6.4920
        19        2.0000           -0.2283845              -6.2147 (HOMO)
        20                          0.0831846               2.2636 (LUMO)
        21                          0.1423371               3.8732
        22                          0.2097686               5.7081
        23                          0.2372974               6.4572
        24                          0.2735305               7.4431
        25                          0.3003744               8.1736
        26                          0.3302854               8.9875
        27                          0.3622193               9.8565
        28                          0.4242487              11.5444
        29                          0.4504407              12.2571
        30                          0.9434457              25.6725
       ...                                ...                  ...
        32                          1.4194621              38.6255
      -------------------------------------------------------------
                  HL-Gap            0.3115690 Eh            8.4782 eV

     #   Z          covCN         q      C6AA      α(0)
     1  16 S        3.712     1.436    95.011    16.405
     2   8 O        0.860    -0.708    28.928     7.211
     3   8 O        0.860    -0.708    28.929     7.211
     4   8 O        1.706    -0.483    22.516     6.407
     5   6 C        3.901     0.067    19.411     6.263
     6   8 O        0.860    -0.677    28.094     7.106
     7   1 H        0.925     0.041     2.435     2.440
     8   1 H        0.924     0.016     2.792     2.613
     9   1 H        0.923     0.016     2.792     2.613

Wiberg/Mayer (AO) data.
largest (>0.10) Wiberg bond orders for each atom

     #   Z sym  total        # sym  WBO       # sym  WBO       # sym  WBO
 ---------------------------------------------------------------------------
     1  16 S    5.056 --     6 O    1.451     3 O    1.406     2 O    1.406
                             4 O    0.776
     2   8 O    1.726 --     1 S    1.406     3 O    0.122     6 O    0.119
     3   8 O    1.726 --     1 S    1.406     2 O    0.122     6 O    0.119
     4   8 O    2.024 --     5 C    1.010     1 S    0.776
     5   6 C    3.958 --     4 O    1.010     8 H    0.979     9 H    0.979
                             7 H    0.974
     6   8 O    1.762 --     1 S    1.451     2 O    0.119     3 O    0.119
     7   1 H    0.998 --     5 C    0.974
     8   1 H    1.000 --     5 C    0.979
     9   1 H    1.000 --     5 C    0.979
 ---------------------------------------------------------------------------

molecular dipole:
                 x           y           z       tot (Debye)
 q only:        1.175      -0.382      -0.107
   full:        1.437      -0.433      -0.124       3.827

           -------------------------------------------------
          | TOTAL ENERGY              -23.459262899276 Eh   |
          | GRADIENT NORM               0.000560384769 Eh/α |
          | HOMO-LUMO GAP               8.478224896326 eV   |
           -------------------------------------------------

 * finished run on 2022/11/03 at 12:54:07.343
