   * xtb version 6.5.1 (b24c23e) compiled by 'conda@728c89f4b128' on 2022-07-12
          program call               : /home/chase/psi4conda/envs/xtbenv/bin/xtb --gfn 2 --chrg -1 --uhf 0 mso4-opt-1-4-240_preQMOPTprefit_xyzformat.xyz --opt --input xtb-opt-1-4-240_constr.txt

   ID    Z sym.   atoms
    1   16 S      1
    2    8 O      2-4, 6
    3    6 C      5
    4    1 H      7-9
constraining angle 2 1 4 5 to  239.9995934°, actual value: -120.0004066°
constraining angle 1 4 5 7 to   60.9965289°, actual value:   60.9965289°

          :  Hamiltonian                  GFN2-xTB          :
 * total energy  :   -23.4502412 Eh     change       -0.1054268E-09 Eh
 * total energy  :   -23.4535980 Eh     change       -0.3356758E-02 Eh
 * total energy  :   -23.4549413 Eh     change       -0.1343332E-02 Eh
 * total energy  :   -23.4549638 Eh     change       -0.2245907E-04 Eh
 * total energy  :   -23.4549654 Eh     change       -0.1665558E-05 Eh
   *** GEOMETRY OPTIMIZATION CONVERGED AFTER 5 ITERATIONS ***

 final structure:
================
9
 xtb: 6.5.1 (b24c23e)
S           -0.42198355560646        0.11030525256970       -0.08429045509965
O           -1.11732523729912        0.61105825627133       -1.25387217323082
O           -0.40512023680275       -1.33953752519403        0.01964531621221
O            1.18339625998982        0.55968847351183       -0.34639379625981
C            2.01766272396251       -0.54124795292367       -0.38972130850989
O           -0.77367471465337        0.78707200684857        1.14878488799653
H            1.73817487759152       -1.21313321181637       -1.20914594943430
H            3.04449502573026       -0.18633212363416       -0.54092764401003
H            1.96006084708758       -1.11266617563321        0.54298614233575

          :  Hamiltonian                  GFN2-xTB          :
         :: total energy             -23.454965421195 Eh    ::
         :: gradient norm              0.000773353608 Eh/a0 ::
         :: HOMO-LUMO gap              8.375368665795 eV    ::
         :: SCC energy               -23.575238035028 Eh    ::
         :: -> dispersion             -0.007009350911 Eh    ::
         :: repulsion energy           0.120270477890 Eh    ::

    * Orbital Energies and Occupations

         #    Occupation            Energy/Eh            Energy/eV
      -------------------------------------------------------------
         1        2.0000           -0.5692158             -15.4892
       ...           ...                  ...                  ...
         7        2.0000           -0.3915275             -10.6540
         8        2.0000           -0.3893218             -10.5940
         9        2.0000           -0.3834045             -10.4330
        10        2.0000           -0.3207984              -8.7294
        11        2.0000           -0.3197423              -8.7006
        12        2.0000           -0.3122226              -8.4960
        13        2.0000           -0.2796093              -7.6086
        14        2.0000           -0.2573269              -7.0022
        15        2.0000           -0.2528905              -6.8815
        16        2.0000           -0.2450733              -6.6688
        17        2.0000           -0.2382242              -6.4824
        18        2.0000           -0.2376876              -6.4678
        19        2.0000           -0.2263475              -6.1592 (HOMO)
        20                          0.0814416               2.2161 (LUMO)
        21                          0.1433749               3.9014
        22                          0.1962275               5.3396
        23                          0.2262381               6.1563
        24                          0.2701025               7.3499
        25                          0.3202689               8.7150
        26                          0.3362753               9.1505
        27                          0.3415047               9.2928
        28                          0.4391603              11.9502
        29                          0.4421567              12.0317
        30                          0.9329317              25.3864
       ...                                ...                  ...
        32                          1.4047711              38.2258
      -------------------------------------------------------------
                  HL-Gap            0.3077891 Eh            8.3754 eV

     #   Z          covCN         q      C6AA      α(0)
     1  16 S        3.632     1.420    95.424    16.441
     2   8 O        0.860    -0.687    28.357     7.140
     3   8 O        0.860    -0.703    28.803     7.196
     4   8 O        1.706    -0.484    22.534     6.409
     5   6 C        3.823     0.075    19.320     6.255
     6   8 O        0.860    -0.687    28.357     7.140
     7   1 H        0.924     0.024     2.673     2.557
     8   1 H        0.924     0.017     2.773     2.604
     9   1 H        0.924     0.026     2.647     2.544

Wiberg/Mayer (AO) data.
largest (>0.10) Wiberg bond orders for each atom

     #   Z sym  total        # sym  WBO       # sym  WBO       # sym  WBO
 ---------------------------------------------------------------------------
     1  16 S    5.072 --     6 O    1.435     2 O    1.435     3 O    1.417
                             4 O    0.768
     2   8 O    1.750 --     1 S    1.435     6 O    0.124     3 O    0.119
     3   8 O    1.734 --     1 S    1.417     6 O    0.119     2 O    0.119
     4   8 O    2.021 --     5 C    1.012     1 S    0.768
     5   6 C    3.960 --     4 O    1.012     7 H    0.978     8 H    0.978
                             9 H    0.978
     6   8 O    1.751 --     1 S    1.435     2 O    0.124     3 O    0.119
     7   1 H    0.999 --     5 C    0.978
     8   1 H    1.000 --     5 C    0.978
     9   1 H    0.999 --     5 C    0.978
 ---------------------------------------------------------------------------

molecular dipole:
                 x           y           z       tot (Debye)
 q only:        1.338      -0.443       0.100
   full:        1.608      -0.489       0.063       4.275

           -------------------------------------------------
          | TOTAL ENERGY              -23.454965421195 Eh   |
          | GRADIENT NORM               0.000773353608 Eh/α |
          | HOMO-LUMO GAP               8.375368665795 eV   |
           -------------------------------------------------

 * finished run on 2022/11/03 at 12:57:04.497
