   * xtb version 6.5.1 (b24c23e) compiled by 'conda@728c89f4b128' on 2022-07-12
          program call               : /home/chase/psi4conda/envs/xtbenv/bin/xtb --gfn 2 --chrg -1 --uhf 0 mso4-opt-1-4-120_preQMOPTprefit_xyzformat.xyz --opt --input xtb-opt-1-4-120_constr.txt

   ID    Z sym.   atoms
    1   16 S      1
    2    8 O      2-4, 6
    3    6 C      5
    4    1 H      7-9
constraining angle 2 1 4 5 to  119.9977283°, actual value:  119.9977283°
constraining angle 1 4 5 7 to   60.9987766°, actual value:   60.9987766°

          :  Hamiltonian                  GFN2-xTB          :
 * total energy  :   -23.4502238 Eh     change       -0.8497736E-10 Eh
 * total energy  :   -23.4535894 Eh     change       -0.3365561E-02 Eh
 * total energy  :   -23.4549393 Eh     change       -0.1349871E-02 Eh
 * total energy  :   -23.4549635 Eh     change       -0.2419528E-04 Eh
 * total energy  :   -23.4549653 Eh     change       -0.1844212E-05 Eh
 * total energy  :   -23.4549656 Eh     change       -0.2752419E-06 Eh
 * total energy  :   -23.4549657 Eh     change       -0.1582547E-06 Eh
   *** GEOMETRY OPTIMIZATION CONVERGED AFTER 7 ITERATIONS ***

 final structure:
================
9
 xtb: 6.5.1 (b24c23e)
S           -0.43467488891373       -0.32599523443230        0.11519243358368
O           -1.21422916162534       -1.43492363147481       -0.39958543835308
O           -0.77114706018403        0.05449438791190        1.47323603665064
O            1.12473414463736       -0.95766333947220        0.24860932313499
C            2.02466900263602       -0.25475621596591       -0.52966346594860
O           -0.31975513947070        0.79478419764609       -0.80346850628390
H            2.07882297230500        0.79384776014026       -0.21630987593315
H            3.01001384398448       -0.72309609664634       -0.41719686565614
H            1.72724928663096       -0.27148181770670       -1.58374664119445

          :  Hamiltonian                  GFN2-xTB          :
         :: total energy             -23.454965749358 Eh    ::
         :: gradient norm              0.000126991796 Eh/a0 ::
         :: HOMO-LUMO gap              8.373575399333 eV    ::
         :: SCC energy               -23.575243877696 Eh    ::
         :: -> dispersion             -0.007009485121 Eh    ::
         :: repulsion energy           0.120276013418 Eh    ::

    * Orbital Energies and Occupations

         #    Occupation            Energy/Eh            Energy/eV
      -------------------------------------------------------------
         1        2.0000           -0.5692228             -15.4893
       ...           ...                  ...                  ...
         7        2.0000           -0.3915355             -10.6542
         8        2.0000           -0.3892966             -10.5933
         9        2.0000           -0.3833675             -10.4320
        10        2.0000           -0.3208015              -8.7295
        11        2.0000           -0.3197383              -8.7005
        12        2.0000           -0.3122377              -8.4964
        13        2.0000           -0.2795895              -7.6080
        14        2.0000           -0.2573393              -7.0026
        15        2.0000           -0.2528745              -6.8811
        16        2.0000           -0.2450689              -6.6687
        17        2.0000           -0.2382610              -6.4834
        18        2.0000           -0.2377097              -6.4684
        19        2.0000           -0.2263691              -6.1598 (HOMO)
        20                          0.0813542               2.2138 (LUMO)
        21                          0.1432517               3.8981
        22                          0.1963066               5.3418
        23                          0.2262006               6.1552
        24                          0.2699854               7.3467
        25                          0.3202892               8.7155
        26                          0.3363218               9.1518
        27                          0.3419944               9.3061
        28                          0.4390125              11.9461
        29                          0.4421532              12.0316
        30                          0.9326374              25.3784
       ...                                ...                  ...
        32                          1.4045486              38.2197
      -------------------------------------------------------------
                  HL-Gap            0.3077232 Eh            8.3736 eV

     #   Z          covCN         q      C6AA      α(0)
     1  16 S        3.632     1.420    95.426    16.441
     2   8 O        0.860    -0.687    28.360     7.140
     3   8 O        0.860    -0.687    28.353     7.139
     4   8 O        1.706    -0.484    22.535     6.409
     5   6 C        3.823     0.075    19.320     6.255
     6   8 O        0.860    -0.703    28.802     7.195
     7   1 H        0.924     0.024     2.670     2.555
     8   1 H        0.924     0.017     2.772     2.604
     9   1 H        0.924     0.026     2.649     2.545

Wiberg/Mayer (AO) data.
largest (>0.10) Wiberg bond orders for each atom

     #   Z sym  total        # sym  WBO       # sym  WBO       # sym  WBO
 ---------------------------------------------------------------------------
     1  16 S    5.071 --     3 O    1.435     2 O    1.434     6 O    1.417
                             4 O    0.768
     2   8 O    1.750 --     1 S    1.434     3 O    0.124     6 O    0.119
     3   8 O    1.751 --     1 S    1.435     2 O    0.124     6 O    0.119
     4   8 O    2.021 --     5 C    1.012     1 S    0.768
     5   6 C    3.960 --     4 O    1.012     7 H    0.978     8 H    0.978
                             9 H    0.978
     6   8 O    1.734 --     1 S    1.417     2 O    0.119     3 O    0.119
     7   1 H    0.999 --     5 C    0.978
     8   1 H    1.000 --     5 C    0.978
     9   1 H    0.999 --     5 C    0.978
 ---------------------------------------------------------------------------

molecular dipole:
                 x           y           z       tot (Debye)
 q only:        1.371       0.701      -0.419
   full:        1.641       0.690      -0.474       4.683

           -------------------------------------------------
          | TOTAL ENERGY              -23.454965749358 Eh   |
          | GRADIENT NORM               0.000126991796 Eh/α |
          | HOMO-LUMO GAP               8.373575399333 eV   |
           -------------------------------------------------

 * finished run on 2022/11/03 at 12:56:25.125
