   * xtb version 6.5.1 (b24c23e) compiled by 'conda@728c89f4b128' on 2022-07-12
          program call               : /home/chase/psi4conda/envs/xtbenv/bin/xtb --gfn 2 --chrg -1 --uhf 0 mso4-opt-1-4-090_preQMOPTprefit_xyzformat.xyz --opt --input xtb-opt-1-4-090_constr.txt

   ID    Z sym.   atoms
    1   16 S      1
    2    8 O      2-4, 6
    3    6 C      5
    4    1 H      7-9
constraining angle 2 1 4 5 to   89.9515525°, actual value:   89.9515525°
constraining angle 1 4 5 7 to   61.0095020°, actual value:   61.0095020°

          :  Hamiltonian                  GFN2-xTB          :
 * total energy  :   -23.4522019 Eh     change       -0.2738432E-10 Eh
 * total energy  :   -23.4560681 Eh     change       -0.3866211E-02 Eh
 * total energy  :   -23.4575748 Eh     change       -0.1506731E-02 Eh
 * total energy  :   -23.4576181 Eh     change       -0.4326117E-04 Eh
 * total energy  :   -23.4576262 Eh     change       -0.8174952E-05 Eh
 * total energy  :   -23.4576274 Eh     change       -0.1174532E-05 Eh
   *** GEOMETRY OPTIMIZATION CONVERGED AFTER 6 ITERATIONS ***

 final structure:
================
9
 xtb: 6.5.1 (b24c23e)
S           -0.39954071252931       -0.26688132473533        0.15301971339626
O           -0.96423850856066       -1.32940796612586       -0.65890920980340
O           -0.97263539511050       -0.17562933046789        1.47989279439187
O            1.17771249944464       -0.76827798278525        0.45597559007384
C            2.00073204101768       -0.29084540623027       -0.54865202817443
O           -0.27483535275929        1.00784544548655       -0.53369397701053
H            1.98516718098000        0.80311219834468       -0.57199043496195
H            3.01868545413797       -0.65193353804516       -0.36342427068276
H            1.65463679337949       -0.65277308544146       -1.52515218722892

          :  Hamiltonian                  GFN2-xTB          :
         :: total energy             -23.457627420711 Eh    ::
         :: gradient norm              0.000691534164 Eh/a0 ::
         :: HOMO-LUMO gap              8.470907433892 eV    ::
         :: SCC energy               -23.578035138458 Eh    ::
         :: -> dispersion             -0.007048147928 Eh    ::
         :: repulsion energy           0.120399029803 Eh    ::

    * Orbital Energies and Occupations

         #    Occupation            Energy/Eh            Energy/eV
      -------------------------------------------------------------
         1        2.0000           -0.5690402             -15.4844
       ...           ...                  ...                  ...
         7        2.0000           -0.3913069             -10.6480
         8        2.0000           -0.3884906             -10.5714
         9        2.0000           -0.3831966             -10.4273
        10        2.0000           -0.3224179              -8.7734
        11        2.0000           -0.3175571              -8.6412
        12        2.0000           -0.3145796              -8.5601
        13        2.0000           -0.2752792              -7.4907
        14        2.0000           -0.2574082              -7.0044
        15        2.0000           -0.2538496              -6.9076
        16        2.0000           -0.2477383              -6.7413
        17        2.0000           -0.2387989              -6.4980
        18        2.0000           -0.2382722              -6.4837
        19        2.0000           -0.2270010              -6.1770 (HOMO)
        20                          0.0842991               2.2939 (LUMO)
        21                          0.1448204               3.9408
        22                          0.2030883               5.5263
        23                          0.2293342               6.2405
        24                          0.2713363               7.3834
        25                          0.3093135               8.4168
        26                          0.3331261               9.0648
        27                          0.3476754               9.4607
        28                          0.4361409              11.8680
        29                          0.4477646              12.1843
        30                          0.9385561              25.5394
       ...                                ...                  ...
        32                          1.4112277              38.4015
      -------------------------------------------------------------
                  HL-Gap            0.3113001 Eh            8.4709 eV

     #   Z          covCN         q      C6AA      α(0)
     1  16 S        3.690     1.426    95.272    16.428
     2   8 O        0.860    -0.698    28.653     7.177
     3   8 O        0.860    -0.681    28.201     7.120
     4   8 O        1.706    -0.482    22.491     6.403
     5   6 C        3.880     0.069    19.374     6.258
     6   8 O        0.860    -0.706    28.870     7.204
     7   1 H        0.924     0.035     2.519     2.482
     8   1 H        0.924     0.018     2.765     2.601
     9   1 H        0.924     0.019     2.746     2.592

Wiberg/Mayer (AO) data.
largest (>0.10) Wiberg bond orders for each atom

     #   Z sym  total        # sym  WBO       # sym  WBO       # sym  WBO
 ---------------------------------------------------------------------------
     1  16 S    5.065 --     3 O    1.445     2 O    1.420     6 O    1.411
                             4 O    0.773
     2   8 O    1.737 --     1 S    1.420     3 O    0.122     6 O    0.120
     3   8 O    1.757 --     1 S    1.445     2 O    0.122     6 O    0.118
     4   8 O    2.024 --     5 C    1.011     1 S    0.773
     5   6 C    3.959 --     4 O    1.011     8 H    0.979     9 H    0.979
                             7 H    0.975
     6   8 O    1.731 --     1 S    1.411     2 O    0.120     3 O    0.118
     7   1 H    0.999 --     5 C    0.975
     8   1 H    1.000 --     5 C    0.979
     9   1 H    1.000 --     5 C    0.979
 ---------------------------------------------------------------------------

molecular dipole:
                 x           y           z       tot (Debye)
 q only:        1.296       0.585      -0.504
   full:        1.564       0.565      -0.574       4.471

           -------------------------------------------------
          | TOTAL ENERGY              -23.457627420711 Eh   |
          | GRADIENT NORM               0.000691534164 Eh/α |
          | HOMO-LUMO GAP               8.470907433892 eV   |
           -------------------------------------------------

 * finished run on 2022/11/03 at 12:56:06.601
