   * xtb version 6.5.1 (b24c23e) compiled by 'conda@728c89f4b128' on 2022-07-12
          program call               : /home/chase/psi4conda/envs/xtbenv/bin/xtb --gfn 2 --chrg -1 --uhf 0 mso4-opt-4-5-271_preQMOPTprefit_xyzformat.xyz --opt --input xtb-opt-4-5-271_constr.txt

   ID    Z sym.   atoms
    1   16 S      1
    2    8 O      2-4, 6
    3    6 C      5
    4    1 H      7-9
constraining angle 1 4 5 7 to  271.0205248°, actual value:  -88.9794752°
constraining angle 2 1 4 5 to  299.9879611°, actual value:  -60.0120389°

          :  Hamiltonian                  GFN2-xTB          :
 * total energy  :   -23.4538452 Eh     change       -0.1714362E-09 Eh
 * total energy  :   -23.4584107 Eh     change       -0.4565587E-02 Eh
 * total energy  :   -23.4600942 Eh     change       -0.1683411E-02 Eh
 * total energy  :   -23.4601601 Eh     change       -0.6595624E-04 Eh
 * total energy  :   -23.4601766 Eh     change       -0.1645613E-04 Eh
 * total energy  :   -23.4601803 Eh     change       -0.3736050E-05 Eh
 * total energy  :   -23.4601812 Eh     change       -0.9133160E-06 Eh
   *** GEOMETRY OPTIMIZATION CONVERGED AFTER 7 ITERATIONS ***

 final structure:
================
9
 xtb: 6.5.1 (b24c23e)
S           -0.34012737597709        0.22252220175744       -0.07646404309312
O           -0.01948317401149        1.09907799276882       -1.19176121247320
O           -0.82825903039096       -1.08164576479557       -0.48988932678746
O            1.13879015998051       -0.09692673717723        0.64944199955901
C            1.93531214679664       -0.70971443424913       -0.30655343737568
O           -1.10220073615727        0.84791979408474        0.98139197149186
H            1.79884540469132       -1.79830423295364       -0.28654213799888
H            1.65703602785947       -0.33313353135144       -1.29448071415547
H            2.98577056720886       -0.47458629808400       -0.09807709916705

          :  Hamiltonian                  GFN2-xTB          :
         :: total energy             -23.460181222383 Eh    ::
         :: gradient norm              0.000328228126 Eh/a0 ::
         :: HOMO-LUMO gap              8.526672016354 eV    ::
         :: SCC energy               -23.580569747343 Eh    ::
         :: -> dispersion             -0.007078280474 Eh    ::
         :: repulsion energy           0.120386155971 Eh    ::

    * Orbital Energies and Occupations

         #    Occupation            Energy/Eh            Energy/eV
      -------------------------------------------------------------
         1        2.0000           -0.5692815             -15.4909
       ...           ...                  ...                  ...
         7        2.0000           -0.3896868             -10.6039
         8        2.0000           -0.3878621             -10.5543
         9        2.0000           -0.3816593             -10.3855
        10        2.0000           -0.3239140              -8.8141
        11        2.0000           -0.3173989              -8.6369
        12        2.0000           -0.3127117              -8.5093
        13        2.0000           -0.2726322              -7.4187
        14        2.0000           -0.2586236              -7.0375
        15        2.0000           -0.2550293              -6.9397
        16        2.0000           -0.2513307              -6.8391
        17        2.0000           -0.2398885              -6.5277
        18        2.0000           -0.2388562              -6.4996
        19        2.0000           -0.2280084              -6.2044 (HOMO)
        20                          0.0853410               2.3222 (LUMO)
        21                          0.1444102               3.9296
        22                          0.2123587               5.7786
        23                          0.2369919               6.4489
        24                          0.2718917               7.3986
        25                          0.2959574               8.0534
        26                          0.3400094               9.2521
        27                          0.3510572               9.5528
        28                          0.4296806              11.6922
        29                          0.4507365              12.2652
        30                          0.9440449              25.6888
       ...                                ...                  ...
        32                          1.4162457              38.5380
      -------------------------------------------------------------
                  HL-Gap            0.3133494 Eh            8.5267 eV

     #   Z          covCN         q      C6AA      α(0)
     1  16 S        3.737     1.436    95.027    16.407
     2   8 O        0.860    -0.709    28.950     7.214
     3   8 O        0.860    -0.707    28.911     7.209
     4   8 O        1.706    -0.482    22.499     6.404
     5   6 C        3.927     0.064    19.443     6.267
     6   8 O        0.860    -0.678    28.106     7.108
     7   1 H        0.924     0.020     2.740     2.589
     8   1 H        0.924     0.040     2.449     2.447
     9   1 H        0.924     0.017     2.782     2.609

Wiberg/Mayer (AO) data.
largest (>0.10) Wiberg bond orders for each atom

     #   Z sym  total        # sym  WBO       # sym  WBO       # sym  WBO
 ---------------------------------------------------------------------------
     1  16 S    5.055 --     6 O    1.451     3 O    1.409     2 O    1.401
                             4 O    0.778
     2   8 O    1.727 --     1 S    1.401     3 O    0.121     6 O    0.119
     3   8 O    1.725 --     1 S    1.409     2 O    0.121     6 O    0.120
     4   8 O    2.025 --     5 C    1.009     1 S    0.778
     5   6 C    3.957 --     4 O    1.009     9 H    0.980     7 H    0.978
                             8 H    0.972
     6   8 O    1.761 --     1 S    1.451     3 O    0.120     2 O    0.119
     7   1 H    1.000 --     5 C    0.978
     8   1 H    0.998 --     5 C    0.972
     9   1 H    1.000 --     5 C    0.980
 ---------------------------------------------------------------------------

molecular dipole:
                 x           y           z       tot (Debye)
 q only:        1.105      -0.613       0.046
   full:        1.354      -0.704       0.057       3.882

           -------------------------------------------------
          | TOTAL ENERGY              -23.460181222383 Eh   |
          | GRADIENT NORM               0.000328228126 Eh/α |
          | HOMO-LUMO GAP               8.526672016354 eV   |
           -------------------------------------------------

 * finished run on 2022/11/03 at 12:54:38.185
