   * xtb version 6.5.1 (b24c23e) compiled by 'conda@728c89f4b128' on 2022-07-12
          program call               : /home/chase/psi4conda/envs/xtbenv/bin/xtb --gfn 2 --chrg -1 --uhf 0 mso4-opt-1-4-210_preQMOPTprefit_xyzformat.xyz --opt --input xtb-opt-1-4-210_constr.txt

   ID    Z sym.   atoms
    1   16 S      1
    2    8 O      2-4, 6
    3    6 C      5
    4    1 H      7-9
constraining angle 2 1 4 5 to  209.9523936°, actual value: -150.0476064°
constraining angle 1 4 5 7 to   61.0093849°, actual value:   61.0093849°

          :  Hamiltonian                  GFN2-xTB          :
 * total energy  :   -23.4521849 Eh     change       -0.1199041E-10 Eh
 * total energy  :   -23.4560562 Eh     change       -0.3871306E-02 Eh
 * total energy  :   -23.4575656 Eh     change       -0.1509448E-02 Eh
 * total energy  :   -23.4576046 Eh     change       -0.3895512E-04 Eh
 * total energy  :   -23.4576109 Eh     change       -0.6304016E-05 Eh
 * total energy  :   -23.4576125 Eh     change       -0.1610434E-05 Eh
   *** GEOMETRY OPTIMIZATION CONVERGED AFTER 6 ITERATIONS ***

 final structure:
================
9
 xtb: 6.5.1 (b24c23e)
S           -0.41196324635234        0.09095198576120       -0.16297088961808
O           -1.24864468504322        0.81584245251084       -1.09586915546673
O           -0.47306677556134       -1.35323402974225       -0.32223859441258
O            1.14636242275626        0.51931104976378       -0.63210497264091
C            2.00746776047767       -0.52397130139813       -0.34118464687118
O           -0.50786079644013        0.53016390717773        1.21660680796983
H            1.71861784403616       -1.42553731279733       -0.88977630541832
H            3.02437713886978       -0.22151511304770       -0.61598614677625
H            1.97039633725715       -0.75680563822813        0.73058990323423

          :  Hamiltonian                  GFN2-xTB          :
         :: total energy             -23.457612491911 Eh    ::
         :: gradient norm              0.000774896673 Eh/a0 ::
         :: HOMO-LUMO gap              8.475976299148 eV    ::
         :: SCC energy               -23.578062591879 Eh    ::
         :: -> dispersion             -0.007049048436 Eh    ::
         :: repulsion energy           0.120440315882 Eh    ::

    * Orbital Energies and Occupations

         #    Occupation            Energy/Eh            Energy/eV
      -------------------------------------------------------------
         1        2.0000           -0.5689848             -15.4829
       ...           ...                  ...                  ...
         7        2.0000           -0.3909947             -10.6395
         8        2.0000           -0.3880169             -10.5585
         9        2.0000           -0.3829311             -10.4201
        10        2.0000           -0.3224231              -8.7736
        11        2.0000           -0.3175948              -8.6422
        12        2.0000           -0.3143092              -8.5528
        13        2.0000           -0.2751186              -7.4864
        14        2.0000           -0.2563079              -6.9745
        15        2.0000           -0.2541532              -6.9159
        16        2.0000           -0.2481009              -6.7512
        17        2.0000           -0.2390136              -6.5039
        18        2.0000           -0.2380406              -6.4774
        19        2.0000           -0.2271790              -6.1819 (HOMO)
        20                          0.0843074               2.2941 (LUMO)
        21                          0.1445787               3.9342
        22                          0.2022832               5.5044
        23                          0.2314746               6.2987
        24                          0.2718788               7.3982
        25                          0.3089660               8.4074
        26                          0.3326174               9.0510
        27                          0.3485322               9.4840
        28                          0.4355317              11.8514
        29                          0.4489864              12.2175
        30                          0.9383604              25.5341
       ...                                ...                  ...
        32                          1.4078432              38.3094
      -------------------------------------------------------------
                  HL-Gap            0.3114864 Eh            8.4760 eV

     #   Z          covCN         q      C6AA      α(0)
     1  16 S        3.687     1.426    95.269    16.428
     2   8 O        0.860    -0.681    28.190     7.119
     3   8 O        0.860    -0.707    28.894     7.207
     4   8 O        1.706    -0.483    22.504     6.405
     5   6 C        3.878     0.070    19.374     6.258
     6   8 O        0.860    -0.698    28.643     7.176
     7   1 H        0.924     0.035     2.511     2.478
     8   1 H        0.924     0.018     2.769     2.602
     9   1 H        0.924     0.019     2.743     2.590

Wiberg/Mayer (AO) data.
largest (>0.10) Wiberg bond orders for each atom

     #   Z sym  total        # sym  WBO       # sym  WBO       # sym  WBO
 ---------------------------------------------------------------------------
     1  16 S    5.065 --     2 O    1.445     6 O    1.420     3 O    1.410
                             4 O    0.773
     2   8 O    1.758 --     1 S    1.445     6 O    0.122     3 O    0.118
     3   8 O    1.729 --     1 S    1.410     6 O    0.120     2 O    0.118
     4   8 O    2.023 --     5 C    1.011     1 S    0.773
     5   6 C    3.958 --     4 O    1.011     8 H    0.979     9 H    0.979
                             7 H    0.975
     6   8 O    1.738 --     1 S    1.420     2 O    0.122     3 O    0.120
     7   1 H    0.999 --     5 C    0.975
     8   1 H    1.000 --     5 C    0.979
     9   1 H    1.000 --     5 C    0.979
 ---------------------------------------------------------------------------

molecular dipole:
                 x           y           z       tot (Debye)
 q only:        1.304      -0.369       0.276
   full:        1.570      -0.397       0.262       4.170

           -------------------------------------------------
          | TOTAL ENERGY              -23.457612491911 Eh   |
          | GRADIENT NORM               0.000774896673 Eh/α |
          | HOMO-LUMO GAP               8.475976299148 eV   |
           -------------------------------------------------

 * finished run on 2022/11/03 at 12:57:26.040
