   * xtb version 6.5.1 (b24c23e) compiled by 'conda@728c89f4b128' on 2022-07-12
          program call               : /home/chase/psi4conda/envs/xtbenv/bin/xtb --gfn 2 --chrg 1 --uhf 0 guan-opt-1-2-240_preQMOPTprefit_xyzformat.xyz --opt --input xtb-opt-1-2-240_constr.txt

   ID    Z sym.   atoms
    1    7 N      1, 3, 6
    2    6 C      2
    3    1 H      4, 5, 7-10
constraining angle 7 1 2 6 to  240.0175323°, actual value: -119.9824677°
constraining angle 8 1 2 6 to   60.0179462°, actual value:   60.0179462°
constraining angle 9 6 2 1 to    0.0085801°, actual value:    0.0085801°
constraining angle 10 6 2 1 to  179.9956238°, actual value:  179.9956238°
constraining angle 4 3 2 1 to    0.0072521°, actual value:    0.0072521°
constraining angle 5 3 2 1 to  180.0031781°, actual value: -179.9968219°

          :  Hamiltonian                  GFN2-xTB          :
 * total energy  :   -13.5383525 Eh     change       -0.2609681E-09 Eh
 * total energy  :   -13.5419138 Eh     change       -0.3561284E-02 Eh
 * total energy  :   -13.5408897 Eh     change        0.1024031E-02 Eh
 * total energy  :   -13.5425450 Eh     change       -0.1655236E-02 Eh
 * total energy  :   -13.5426320 Eh     change       -0.8703462E-04 Eh
 * total energy  :   -13.5426796 Eh     change       -0.4763076E-04 Eh
 * total energy  :   -13.5426863 Eh     change       -0.6642714E-05 Eh
 * total energy  :   -13.5426884 Eh     change       -0.2157908E-05 Eh
 * total energy  :   -13.5426892 Eh     change       -0.7725142E-06 Eh
 * total energy  :   -13.5426896 Eh     change       -0.3935498E-06 Eh
 * total energy  :   -13.5426897 Eh     change       -0.1145702E-06 Eh
   *** GEOMETRY OPTIMIZATION CONVERGED AFTER 11 ITERATIONS ***

 final structure:
================
10
 xtb: 6.5.1 (b24c23e)
N           -0.57709712870000        1.19350483035232       -0.15407266136857
C            0.00185162853189       -0.00805899553604        0.05597958207432
N            1.32336765844312       -0.09869295539216        0.06768472856621
H            1.89226382696818        0.72184849936089       -0.07813598955913
H            1.80181547600138       -0.97376669171938        0.21969459399025
N           -0.74405300203602       -1.10053011093263        0.10714557367308
H           -0.33549750635356        1.76043530799602       -0.94741224767275
H           -1.26844729733990        1.56021028633021        0.47631535038322
H           -1.74437799763668       -1.03875670411588       -0.00979950512135
H           -0.34978566787842       -2.01618647634335        0.26255356503473

          :  Hamiltonian                  GFN2-xTB          :
         :: total energy             -13.542689722133 Eh    ::
         :: gradient norm              0.000382378264 Eh/a0 ::
         :: HOMO-LUMO gap              4.611925543584 eV    ::
         :: SCC energy               -13.739208092290 Eh    ::
         :: -> dispersion             -0.003411350318 Eh    ::
         :: repulsion energy           0.196467370831 Eh    ::

    * Orbital Energies and Occupations

         #    Occupation            Energy/Eh            Energy/eV
      -------------------------------------------------------------
         1        2.0000           -0.9064729             -24.6664
         2        2.0000           -0.8567659             -23.3138
         3        2.0000           -0.8491232             -23.1058
         4        2.0000           -0.7868494             -21.4113
         5        2.0000           -0.7684900             -20.9117
         6        2.0000           -0.7642784             -20.7971
         7        2.0000           -0.7589878             -20.6531
         8        2.0000           -0.7206033             -19.6086
         9        2.0000           -0.7140024             -19.4290
        10        2.0000           -0.6944848             -18.8979
        11        2.0000           -0.6282263             -17.0949
        12        2.0000           -0.5986344             -16.2897 (HOMO)
        13                         -0.4291493             -11.6777 (LUMO)
        14                         -0.2247573              -6.1160
        15                         -0.1429142              -3.8889
        16                         -0.1320981              -3.5946
        17                         -0.0335873              -0.9140
        18                          0.0053283               0.1450
        19                          0.0710755               1.9341
        20                          0.0819076               2.2288
        21                          0.2792210               7.5980
        22                          0.2866854               7.8011
      -------------------------------------------------------------
                  HL-Gap            0.1694851 Eh            4.6119 eV

     #   Z          covCN         q      C6AA      α(0)
     1   7 N        2.650    -0.272    27.047     7.724
     2   6 C        2.730     0.261    22.608     7.784
     3   7 N        2.652    -0.208    25.521     7.503
     4   1 H        0.860     0.244     0.905     1.490
     5   1 H        0.860     0.237     0.934     1.514
     6   7 N        2.651    -0.206    25.481     7.497
     7   1 H        0.860     0.230     0.963     1.537
     8   1 H        0.860     0.230     0.967     1.540
     9   1 H        0.860     0.245     0.902     1.487
    10   1 H        0.860     0.238     0.932     1.512

Wiberg/Mayer (AO) data.
largest (>0.10) Wiberg bond orders for each atom

     #   Z sym  total        # sym  WBO       # sym  WBO       # sym  WBO
 ---------------------------------------------------------------------------
     1   7 N    3.239 --     2 C    1.218     8 H    0.918     7 H    0.916
     2   6 C    3.973 --     6 N    1.372     3 N    1.370     1 N    1.218
     3   7 N    3.465 --     2 C    1.370     5 H    0.923     4 H    0.921
                             6 N    0.137
     4   1 H    0.940 --     3 N    0.921
     5   1 H    0.944 --     3 N    0.923
     6   7 N    3.464 --     2 C    1.372    10 H    0.923     9 H    0.921
                             3 N    0.137
     7   1 H    0.947 --     1 N    0.916
     8   1 H    0.947 --     1 N    0.918
     9   1 H    0.940 --     6 N    0.921
    10   1 H    0.943 --     6 N    0.923
 ---------------------------------------------------------------------------

molecular dipole:
                 x           y           z       tot (Debye)
 q only:        0.088      -0.199       0.009
   full:        0.096      -0.217       0.030       0.609

           -------------------------------------------------
          | TOTAL ENERGY              -13.542689722133 Eh   |
          | GRADIENT NORM               0.000382378264 Eh/α |
          | HOMO-LUMO GAP               4.611925543584 eV   |
           -------------------------------------------------

 * finished run on 2022/11/03 at 12:40:57.723
