   * xtb version 6.5.1 (b24c23e) compiled by 'conda@728c89f4b128' on 2022-07-12
          program call               : /home/chase/psi4conda/envs/xtbenv/bin/xtb --gfn 2 --chrg 1 --uhf 0 guan-opt-1-2-270_preQMOPTprefit_xyzformat.xyz --opt --input xtb-opt-1-2-270_constr.txt

   ID    Z sym.   atoms
    1    7 N      1, 3, 6
    2    6 C      2
    3    1 H      4, 5, 7-10
constraining angle 7 1 2 6 to  269.9993991°, actual value:  -90.0006009°
constraining angle 8 1 2 6 to   90.0003822°, actual value:   90.0003822°
constraining angle 9 6 2 1 to  359.9998806°, actual value:   -0.0001194°
constraining angle 10 6 2 1 to  179.9989850°, actual value:  179.9989850°
constraining angle 4 3 2 1 to    0.0010995°, actual value:    0.0010995°
constraining angle 5 3 2 1 to  180.0005103°, actual value: -179.9994897°

          :  Hamiltonian                  GFN2-xTB          :
 * total energy  :   -13.5303412 Eh     change       -0.2938627E-10 Eh
 * total energy  :   -13.5320236 Eh     change       -0.1682375E-02 Eh
 * total energy  :   -13.5322120 Eh     change       -0.1884076E-03 Eh
 * total energy  :   -13.5322434 Eh     change       -0.3135838E-04 Eh
 * total energy  :   -13.5322553 Eh     change       -0.1188823E-04 Eh
 * total energy  :   -13.5322389 Eh     change        0.1641563E-04 Eh
 * total energy  :   -13.5322586 Eh     change       -0.1969907E-04 Eh
 * total energy  :   -13.5322588 Eh     change       -0.2054208E-06 Eh
   *** GEOMETRY OPTIMIZATION CONVERGED AFTER 8 ITERATIONS ***

 final structure:
================
10
 xtb: 6.5.1 (b24c23e)
N           -0.57857418644349        1.19423902056122       -0.17590407369850
C            0.01194481057146       -0.02464812015244        0.00363113691022
N            1.32178965607793       -0.09736559868164        0.13339852450777
H            1.87536354626146        0.74767709267990        0.09888012176268
H            1.81418632976481       -0.96987640752809        0.26841542106359
N           -0.73768087202791       -1.10826669411505        0.04418079801810
H           -0.72535872152642        1.57414485535678       -1.09212861014704
H           -0.88371141103006        1.74711490494797        0.60291244317464
H           -1.74004473115568       -1.02696820794515       -0.05775013754741
H           -0.35787641049210       -2.03604483512351        0.17431737595595

          :  Hamiltonian                  GFN2-xTB          :
         :: total energy             -13.532258760841 Eh    ::
         :: gradient norm              0.000313042457 Eh/a0 ::
         :: HOMO-LUMO gap              3.597440189064 eV    ::
         :: SCC energy               -13.728119871616 Eh    ::
         :: -> dispersion             -0.003412845762 Eh    ::
         :: repulsion energy           0.195858728439 Eh    ::

    * Orbital Energies and Occupations

         #    Occupation            Energy/Eh            Energy/eV
      -------------------------------------------------------------
         1        2.0000           -0.9083743             -24.7181
         2        2.0000           -0.8610892             -23.4314
         3        2.0000           -0.8453940             -23.0043
         4        2.0000           -0.7900991             -21.4997
         5        2.0000           -0.7706555             -20.9706
         6        2.0000           -0.7627349             -20.7551
         7        2.0000           -0.7586477             -20.6439
         8        2.0000           -0.7249481             -19.7268
         9        2.0000           -0.7099667             -19.3192
        10        2.0000           -0.6863145             -18.6756
        11        2.0000           -0.6365767             -17.3221
        12        2.0000           -0.5743048             -15.6276 (HOMO)
        13                         -0.4421013             -12.0302 (LUMO)
        14                         -0.2251312              -6.1261
        15                         -0.1465334              -3.9874
        16                         -0.1366232              -3.7177
        17                         -0.0346303              -0.9423
        18                          0.0091026               0.2477
        19                          0.0818073               2.2261
        20                          0.0902472               2.4558
        21                          0.2640740               7.1858
        22                          0.2866621               7.8005
      -------------------------------------------------------------
                  HL-Gap            0.1322035 Eh            3.5974 eV

     #   Z          covCN         q      C6AA      α(0)
     1   7 N        2.648    -0.317    28.157     7.881
     2   6 C        2.730     0.270    22.442     7.756
     3   7 N        2.651    -0.194    25.218     7.458
     4   1 H        0.860     0.253     0.872     1.462
     5   1 H        0.860     0.240     0.922     1.505
     6   7 N        2.651    -0.194    25.218     7.458
     7   1 H        0.861     0.225     0.989     1.558
     8   1 H        0.861     0.225     0.989     1.558
     9   1 H        0.860     0.253     0.872     1.462
    10   1 H        0.860     0.240     0.922     1.505

Wiberg/Mayer (AO) data.
largest (>0.10) Wiberg bond orders for each atom

     #   Z sym  total        # sym  WBO       # sym  WBO       # sym  WBO
 ---------------------------------------------------------------------------
     1   7 N    3.058 --     2 C    1.113     8 H    0.907     7 H    0.907
     2   6 C    3.967 --     6 N    1.415     3 N    1.415     1 N    1.113
     3   7 N    3.502 --     2 C    1.415     5 H    0.919     4 H    0.917
                             6 N    0.163
     4   1 H    0.936 --     3 N    0.917
     5   1 H    0.942 --     3 N    0.919
     6   7 N    3.502 --     2 C    1.415    10 H    0.919     9 H    0.917
                             3 N    0.163
     7   1 H    0.950 --     1 N    0.907
     8   1 H    0.950 --     1 N    0.907
     9   1 H    0.936 --     6 N    0.917
    10   1 H    0.942 --     6 N    0.919
 ---------------------------------------------------------------------------

molecular dipole:
                 x           y           z       tot (Debye)
 q only:        0.181      -0.374       0.055
   full:        0.200      -0.413       0.061       1.178

           -------------------------------------------------
          | TOTAL ENERGY              -13.532258760841 Eh   |
          | GRADIENT NORM               0.000313042457 Eh/α |
          | HOMO-LUMO GAP               3.597440189064 eV   |
           -------------------------------------------------

 * finished run on 2022/11/03 at 12:40:46.898
