   * xtb version 6.5.1 (b24c23e) compiled by 'conda@728c89f4b128' on 2022-07-12
          program call               : /home/chase/psi4conda/envs/xtbenv/bin/xtb --gfn 2 --chrg 1 --uhf 0 guan-opt-1-2-090_preQMOPTprefit_xyzformat.xyz --opt --input xtb-opt-1-2-090_constr.txt

   ID    Z sym.   atoms
    1    7 N      1, 3, 6
    2    6 C      2
    3    1 H      4, 5, 7-10
constraining angle 7 1 2 6 to   90.0002784°, actual value:   90.0002784°
constraining angle 8 1 2 6 to  270.0000878°, actual value:  -89.9999122°
constraining angle 9 6 2 1 to    0.0005029°, actual value:    0.0005029°
constraining angle 10 6 2 1 to  180.0008607°, actual value: -179.9991393°
constraining angle 4 3 2 1 to    0.0001915°, actual value:    0.0001915°
constraining angle 5 3 2 1 to  180.0003043°, actual value: -179.9996957°

          :  Hamiltonian                  GFN2-xTB          :
 * total energy  :   -13.5303336 Eh     change       -0.3063150E-10 Eh
 * total energy  :   -13.5320272 Eh     change       -0.1693550E-02 Eh
 * total energy  :   -13.5322069 Eh     change       -0.1796937E-03 Eh
 * total energy  :   -13.5321206 Eh     change        0.8629835E-04 Eh
 * total energy  :   -13.5322509 Eh     change       -0.1303296E-03 Eh
 * total energy  :   -13.5322559 Eh     change       -0.4933263E-05 Eh
 * total energy  :   -13.5322584 Eh     change       -0.2577163E-05 Eh
 * total energy  :   -13.5322588 Eh     change       -0.3261274E-06 Eh
   *** GEOMETRY OPTIMIZATION CONVERGED AFTER 8 ITERATIONS ***

 final structure:
================
10
 xtb: 6.5.1 (b24c23e)
N           -0.57986593274710        1.19442138360032       -0.16982769644138
C            0.01199762402415       -0.02470849060070        0.00350573487232
N            1.24588709172787       -0.08650630149714        0.46334960760174
H            1.74092596290837        0.76701782528642        0.68275011067305
H            1.73519693231498       -0.95852744590116        0.61204173036519
N           -0.66045409697536       -1.11937730756026       -0.29191561467858
H           -1.10630441998004        1.62914764973201        0.56448205010868
H           -0.50634544487443        1.69263190191787       -1.03684001027806
H           -1.60546833757893       -1.04613422313378       -0.64303486713225
H           -0.27552937881952       -2.04795900184359       -0.18455804509071

          :  Hamiltonian                  GFN2-xTB          :
         :: total energy             -13.532258753458 Eh    ::
         :: gradient norm              0.000769876441 Eh/a0 ::
         :: HOMO-LUMO gap              3.597673453265 eV    ::
         :: SCC energy               -13.728135594641 Eh    ::
         :: -> dispersion             -0.003412864976 Eh    ::
         :: repulsion energy           0.195874448777 Eh    ::

    * Orbital Energies and Occupations

         #    Occupation            Energy/Eh            Energy/eV
      -------------------------------------------------------------
         1        2.0000           -0.9083822             -24.7183
         2        2.0000           -0.8610988             -23.4317
         3        2.0000           -0.8453967             -23.0044
         4        2.0000           -0.7901020             -21.4998
         5        2.0000           -0.7706577             -20.9707
         6        2.0000           -0.7627415             -20.7553
         7        2.0000           -0.7586493             -20.6439
         8        2.0000           -0.7249525             -19.7270
         9        2.0000           -0.7099651             -19.3191
        10        2.0000           -0.6863175             -18.6757
        11        2.0000           -0.6365810             -17.3223
        12        2.0000           -0.5743059             -15.6277 (HOMO)
        13                         -0.4420939             -12.0300 (LUMO)
        14                         -0.2251167              -6.1257
        15                         -0.1465226              -3.9871
        16                         -0.1366217              -3.7177
        17                         -0.0346069              -0.9417
        18                          0.0091130               0.2480
        19                          0.0818279               2.2267
        20                          0.0902593               2.4561
        21                          0.2640626               7.1855
        22                          0.2867437               7.8027
      -------------------------------------------------------------
                  HL-Gap            0.1322121 Eh            3.5977 eV

     #   Z          covCN         q      C6AA      α(0)
     1   7 N        2.648    -0.317    28.158     7.881
     2   6 C        2.730     0.270    22.442     7.756
     3   7 N        2.651    -0.194    25.218     7.458
     4   1 H        0.860     0.253     0.872     1.462
     5   1 H        0.860     0.240     0.922     1.505
     6   7 N        2.651    -0.194    25.218     7.458
     7   1 H        0.861     0.225     0.989     1.558
     8   1 H        0.861     0.225     0.989     1.558
     9   1 H        0.860     0.253     0.872     1.462
    10   1 H        0.860     0.240     0.922     1.505

Wiberg/Mayer (AO) data.
largest (>0.10) Wiberg bond orders for each atom

     #   Z sym  total        # sym  WBO       # sym  WBO       # sym  WBO
 ---------------------------------------------------------------------------
     1   7 N    3.058 --     2 C    1.113     7 H    0.907     8 H    0.907
     2   6 C    3.967 --     3 N    1.415     6 N    1.415     1 N    1.113
     3   7 N    3.502 --     2 C    1.415     5 H    0.919     4 H    0.917
                             6 N    0.163
     4   1 H    0.936 --     3 N    0.917
     5   1 H    0.942 --     3 N    0.919
     6   7 N    3.502 --     2 C    1.415    10 H    0.919     9 H    0.917
                             3 N    0.163
     7   1 H    0.950 --     1 N    0.907
     8   1 H    0.950 --     1 N    0.907
     9   1 H    0.936 --     6 N    0.917
    10   1 H    0.942 --     6 N    0.919
 ---------------------------------------------------------------------------

molecular dipole:
                 x           y           z       tot (Debye)
 q only:        0.182      -0.374       0.053
   full:        0.201      -0.414       0.059       1.178

           -------------------------------------------------
          | TOTAL ENERGY              -13.532258753458 Eh   |
          | GRADIENT NORM               0.000769876441 Eh/α |
          | HOMO-LUMO GAP               3.597673453265 eV   |
           -------------------------------------------------

 * finished run on 2022/11/03 at 12:40:06.713
