   * xtb version 6.5.1 (b24c23e) compiled by 'conda@728c89f4b128' on 2022-07-12
          program call               : /home/chase/psi4conda/envs/xtbenv/bin/xtb --gfn 2 --chrg 1 --uhf 0 guan-opt-1-2-150_preQMOPTprefit_xyzformat.xyz --opt --input xtb-opt-1-2-150_constr.txt

   ID    Z sym.   atoms
    1    7 N      1, 3, 6
    2    6 C      2
    3    1 H      4, 5, 7-10
constraining angle 7 1 2 6 to  149.9729675°, actual value:  149.9729675°
constraining angle 8 1 2 6 to  329.9782825°, actual value:  -30.0217175°
constraining angle 9 6 2 1 to  359.9899333°, actual value:   -0.0100667°
constraining angle 10 6 2 1 to  180.0056513°, actual value: -179.9943487°
constraining angle 4 3 2 1 to  359.9890793°, actual value:   -0.0109207°
constraining angle 5 3 2 1 to  179.9936134°, actual value:  179.9936134°

          :  Hamiltonian                  GFN2-xTB          :
 * total energy  :   -13.5521553 Eh     change       -0.2446772E-09 Eh
 * total energy  :   -13.5556241 Eh     change       -0.3468814E-02 Eh
 * total energy  :   -13.5527511 Eh     change        0.2873037E-02 Eh
 * total energy  :   -13.5563474 Eh     change       -0.3596284E-02 Eh
 * total energy  :   -13.5563790 Eh     change       -0.3162837E-04 Eh
 * total energy  :   -13.5564125 Eh     change       -0.3352283E-04 Eh
 * total energy  :   -13.5564158 Eh     change       -0.3275509E-05 Eh
 * total energy  :   -13.5564167 Eh     change       -0.9102556E-06 Eh
 * total energy  :   -13.5564169 Eh     change       -0.1757608E-06 Eh
   *** GEOMETRY OPTIMIZATION CONVERGED AFTER 9 ITERATIONS ***

 final structure:
================
10
 xtb: 6.5.1 (b24c23e)
N           -0.57196617838740        1.18722040515534       -0.17882967189481
C            0.01714737545849       -0.00071179707531       -0.03343192293534
N            1.19625473764946       -0.08228295788256        0.57121555764773
H            1.65862223803553        0.73983850325274        0.92439948636636
H            1.66545855347618       -0.96485168963162        0.69637954225168
N           -0.61740881793561       -1.10612231261881       -0.40399882197440
H           -0.37138268912509        1.95288247428228        0.44244328818271
H           -1.23647467855189        1.35614564543369       -0.91543367252730
H           -1.54399924002643       -1.06616843436970       -0.79696496745404
H           -0.19621131059322       -2.01594183654604       -0.30582780766261

          :  Hamiltonian                  GFN2-xTB          :
         :: total energy             -13.556416890979 Eh    ::
         :: gradient norm              0.000982600994 Eh/a0 ::
         :: HOMO-LUMO gap              5.626849080706 eV    ::
         :: SCC energy               -13.755166773351 Eh    ::
         :: -> dispersion             -0.003410876188 Eh    ::
         :: repulsion energy           0.198724925071 Eh    ::

    * Orbital Energies and Occupations

         #    Occupation            Energy/Eh            Energy/eV
      -------------------------------------------------------------
         1        2.0000           -0.9070457             -24.6820
         2        2.0000           -0.8553318             -23.2748
         3        2.0000           -0.8537079             -23.2306
         4        2.0000           -0.7865911             -21.4042
         5        2.0000           -0.7691613             -20.9299
         6        2.0000           -0.7682074             -20.9040
         7        2.0000           -0.7530991             -20.4929
         8        2.0000           -0.7176974             -19.5295
         9        2.0000           -0.7169539             -19.5093
        10        2.0000           -0.7086272             -19.2827
        11        2.0000           -0.6217984             -16.9200
        12        2.0000           -0.6156521             -16.7527 (HOMO)
        13                         -0.4088692             -11.1259 (LUMO)
        14                         -0.2280235              -6.2048
        15                         -0.1350390              -3.6746
        16                         -0.1304269              -3.5491
        17                         -0.0336665              -0.9161
        18                         -0.0200934              -0.5468
        19                          0.0722039               1.9648
        20                          0.0788410               2.1454
        21                          0.3006459               8.1810
        22                          0.3013164               8.1992
      -------------------------------------------------------------
                  HL-Gap            0.2067829 Eh            5.6268 eV

     #   Z          covCN         q      C6AA      α(0)
     1   7 N        2.652    -0.234    26.126     7.591
     2   6 C        2.730     0.256    22.691     7.799
     3   7 N        2.653    -0.218    25.755     7.537
     4   1 H        0.860     0.237     0.935     1.515
     5   1 H        0.860     0.235     0.943     1.521
     6   7 N        2.652    -0.217    25.739     7.535
     7   1 H        0.860     0.234     0.948     1.525
     8   1 H        0.860     0.234     0.950     1.527
     9   1 H        0.860     0.238     0.933     1.513
    10   1 H        0.860     0.235     0.942     1.520

Wiberg/Mayer (AO) data.
largest (>0.10) Wiberg bond orders for each atom

     #   Z sym  total        # sym  WBO       # sym  WBO       # sym  WBO
 ---------------------------------------------------------------------------
     1   7 N    3.373 --     2 C    1.299     8 H    0.925     7 H    0.924
     2   6 C    3.975 --     6 N    1.336     3 N    1.336     1 N    1.299
     3   7 N    3.427 --     2 C    1.336     5 H    0.925     4 H    0.925
                             6 N    0.112
     4   1 H    0.944 --     3 N    0.925
     5   1 H    0.945 --     3 N    0.925
     6   7 N    3.427 --     2 C    1.336    10 H    0.925     9 H    0.925
                             3 N    0.112
     7   1 H    0.945 --     1 N    0.924
     8   1 H    0.945 --     1 N    0.925
     9   1 H    0.944 --     6 N    0.925
    10   1 H    0.945 --     6 N    0.925
 ---------------------------------------------------------------------------

molecular dipole:
                 x           y           z       tot (Debye)
 q only:        0.015      -0.049       0.015
   full:        0.023      -0.052       0.003       0.146

           -------------------------------------------------
          | TOTAL ENERGY              -13.556416890979 Eh   |
          | GRADIENT NORM               0.000982600994 Eh/α |
          | HOMO-LUMO GAP               5.626849080706 eV   |
           -------------------------------------------------

 * finished run on 2022/11/03 at 12:40:15.978
