   * xtb version 6.5.1 (b24c23e) compiled by 'conda@728c89f4b128' on 2022-07-12
          program call               : /home/chase/psi4conda/envs/xtbenv/bin/xtb --gfn 2 --chrg 1 --uhf 0 guan-opt-1-2-120_preQMOPTprefit_xyzformat.xyz --opt --input xtb-opt-1-2-120_constr.txt

   ID    Z sym.   atoms
    1    7 N      1, 3, 6
    2    6 C      2
    3    1 H      4, 5, 7-10
constraining angle 7 1 2 6 to  119.9819656°, actual value:  119.9819656°
constraining angle 8 1 2 6 to  299.9819856°, actual value:  -60.0180144°
constraining angle 9 6 2 1 to  359.9907700°, actual value:   -0.0092300°
constraining angle 10 6 2 1 to  180.0034345°, actual value: -179.9965655°
constraining angle 4 3 2 1 to  359.9925454°, actual value:   -0.0074546°
constraining angle 5 3 2 1 to  179.9967859°, actual value:  179.9967859°

          :  Hamiltonian                  GFN2-xTB          :
 * total energy  :   -13.5383738 Eh     change       -0.2747509E-09 Eh
 * total energy  :   -13.5419197 Eh     change       -0.3545894E-02 Eh
 * total energy  :   -13.5409174 Eh     change        0.1002284E-02 Eh
 * total energy  :   -13.5425439 Eh     change       -0.1626482E-02 Eh
 * total energy  :   -13.5426319 Eh     change       -0.8801979E-04 Eh
 * total energy  :   -13.5426795 Eh     change       -0.4762085E-04 Eh
 * total energy  :   -13.5426862 Eh     change       -0.6659961E-05 Eh
 * total energy  :   -13.5426883 Eh     change       -0.2142075E-05 Eh
 * total energy  :   -13.5426891 Eh     change       -0.7621534E-06 Eh
 * total energy  :   -13.5426895 Eh     change       -0.3859710E-06 Eh
 * total energy  :   -13.5426896 Eh     change       -0.1134147E-06 Eh
   *** GEOMETRY OPTIMIZATION CONVERGED AFTER 11 ITERATIONS ***

 final structure:
================
10
 xtb: 6.5.1 (b24c23e)
N           -0.56904988631221        1.19238758959898       -0.18875189960693
C            0.02598308785475       -0.01154121751911       -0.04893566566440
N            1.21859712901820       -0.08365499136656        0.52310283883370
H            1.67864838944103        0.75256227829842        0.85064766575802
H            1.70263944165292       -0.95956649117366        0.65059761912365
N           -0.63856940720565       -1.11571457897786       -0.35168395824016
H           -0.68976535580484        1.81157023794394        0.59304606550254
H           -0.91048550723474        1.50866258827456       -1.07937952408006
H           -1.58860028815445       -1.06114421785487       -0.68724777758261
H           -0.22935761325501       -2.03355320722383       -0.26144336404375

          :  Hamiltonian                  GFN2-xTB          :
         :: total energy             -13.542689600782 Eh    ::
         :: gradient norm              0.000379073812 Eh/a0 ::
         :: HOMO-LUMO gap              4.611916299752 eV    ::
         :: SCC energy               -13.739208604920 Eh    ::
         :: -> dispersion             -0.003411350316 Eh    ::
         :: repulsion energy           0.196468009275 Eh    ::

    * Orbital Energies and Occupations

         #    Occupation            Energy/Eh            Energy/eV
      -------------------------------------------------------------
         1        2.0000           -0.9064729             -24.6664
         2        2.0000           -0.8567659             -23.3138
         3        2.0000           -0.8491232             -23.1058
         4        2.0000           -0.7868496             -21.4113
         5        2.0000           -0.7684900             -20.9117
         6        2.0000           -0.7642784             -20.7971
         7        2.0000           -0.7589880             -20.6531
         8        2.0000           -0.7206034             -19.6086
         9        2.0000           -0.7140024             -19.4290
        10        2.0000           -0.6944846             -18.8979
        11        2.0000           -0.6282264             -17.0949
        12        2.0000           -0.5986343             -16.2897 (HOMO)
        13                         -0.4291495             -11.6778 (LUMO)
        14                         -0.2247567              -6.1159
        15                         -0.1429133              -3.8889
        16                         -0.1320974              -3.5946
        17                         -0.0335866              -0.9139
        18                          0.0053297               0.1450
        19                          0.0710768               1.9341
        20                          0.0819079               2.2288
        21                          0.2792221               7.5980
        22                          0.2866854               7.8011
      -------------------------------------------------------------
                  HL-Gap            0.1694848 Eh            4.6119 eV

     #   Z          covCN         q      C6AA      α(0)
     1   7 N        2.650    -0.272    27.047     7.724
     2   6 C        2.730     0.261    22.608     7.784
     3   7 N        2.652    -0.208    25.521     7.503
     4   1 H        0.860     0.244     0.905     1.490
     5   1 H        0.860     0.237     0.934     1.514
     6   7 N        2.651    -0.206    25.481     7.497
     7   1 H        0.860     0.230     0.963     1.537
     8   1 H        0.860     0.230     0.967     1.540
     9   1 H        0.860     0.245     0.902     1.487
    10   1 H        0.860     0.238     0.932     1.512

Wiberg/Mayer (AO) data.
largest (>0.10) Wiberg bond orders for each atom

     #   Z sym  total        # sym  WBO       # sym  WBO       # sym  WBO
 ---------------------------------------------------------------------------
     1   7 N    3.239 --     2 C    1.218     8 H    0.918     7 H    0.916
     2   6 C    3.973 --     6 N    1.372     3 N    1.370     1 N    1.218
     3   7 N    3.465 --     2 C    1.370     5 H    0.923     4 H    0.921
                             6 N    0.137
     4   1 H    0.940 --     3 N    0.921
     5   1 H    0.944 --     3 N    0.923
     6   7 N    3.464 --     2 C    1.372    10 H    0.923     9 H    0.921
                             3 N    0.137
     7   1 H    0.947 --     1 N    0.916
     8   1 H    0.947 --     1 N    0.918
     9   1 H    0.940 --     6 N    0.921
    10   1 H    0.943 --     6 N    0.923
 ---------------------------------------------------------------------------

molecular dipole:
                 x           y           z       tot (Debye)
 q only:        0.080      -0.198       0.043
   full:        0.097      -0.217       0.029       0.609

           -------------------------------------------------
          | TOTAL ENERGY              -13.542689600782 Eh   |
          | GRADIENT NORM               0.000379073812 Eh/α |
          | HOMO-LUMO GAP               4.611916299752 eV   |
           -------------------------------------------------

 * finished run on 2022/11/03 at 12:40:11.531
