   * xtb version 6.5.1 (b24c23e) compiled by 'conda@728c89f4b128' on 2022-07-12
          program call               : /home/chase/psi4conda/envs/xtbenv/bin/xtb --gfn 2 --chrg 1 --uhf 0 guan-opt-1-2-030_preQMOPTprefit_xyzformat.xyz --opt --input xtb-opt-1-2-030_constr.txt

   ID    Z sym.   atoms
    1    7 N      1, 3, 6
    2    6 C      2
    3    1 H      4, 5, 7-10
constraining angle 7 1 2 6 to   30.0219253°, actual value:   30.0219253°
constraining angle 8 1 2 6 to  210.0250119°, actual value: -149.9749881°
constraining angle 9 6 2 1 to    0.0091892°, actual value:    0.0091892°
constraining angle 10 6 2 1 to  179.9940570°, actual value:  179.9940570°
constraining angle 4 3 2 1 to    0.0105040°, actual value:    0.0105040°
constraining angle 5 3 2 1 to  180.0044839°, actual value: -179.9955161°

          :  Hamiltonian                  GFN2-xTB          :
 * total energy  :   -13.5521490 Eh     change       -0.1309886E-10 Eh
 * total energy  :   -13.5556194 Eh     change       -0.3470424E-02 Eh
 * total energy  :   -13.5527265 Eh     change        0.2892899E-02 Eh
 * total energy  :   -13.5563468 Eh     change       -0.3620274E-02 Eh
 * total energy  :   -13.5563786 Eh     change       -0.3183673E-04 Eh
 * total energy  :   -13.5564128 Eh     change       -0.3413969E-04 Eh
 * total energy  :   -13.5564161 Eh     change       -0.3289928E-05 Eh
 * total energy  :   -13.5564170 Eh     change       -0.9220229E-06 Eh
 * total energy  :   -13.5564171 Eh     change       -0.1709207E-06 Eh
 * total energy  :   -13.5564173 Eh     change       -0.2027186E-06 Eh
   *** GEOMETRY OPTIMIZATION CONVERGED AFTER 10 ITERATIONS ***

 final structure:
================
10
 xtb: 6.5.1 (b24c23e)
N           -0.57973975492227        1.18635775431368       -0.15756891471742
C           -0.00916582224997       -0.00364348838665        0.03669581238024
N            1.27925868997021       -0.07357066538410        0.34919704576661
H            1.83817654248683        0.75914541301158        0.44373180377259
H            1.73834573013328       -0.95718332561035        0.50144112229822
N           -0.70196693432767       -1.11518604322379       -0.17836044215259
H           -1.56869818077633        1.32106227050702       -0.02830302632735
H           -0.04045753541464        1.98779726215621       -0.43937033282708
H           -1.65979032079918       -1.07821778609903       -0.48824728766554
H           -0.29592341410027       -2.02655637128458       -0.03926278052765

          :  Hamiltonian                  GFN2-xTB          :
         :: total energy             -13.556417347006 Eh    ::
         :: gradient norm              0.000217570277 Eh/a0 ::
         :: HOMO-LUMO gap              5.627218125799 eV    ::
         :: SCC energy               -13.755106478957 Eh    ::
         :: -> dispersion             -0.003410899575 Eh    ::
         :: repulsion energy           0.198665027166 Eh    ::

    * Orbital Energies and Occupations

         #    Occupation            Energy/Eh            Energy/eV
      -------------------------------------------------------------
         1        2.0000           -0.9070556             -24.6822
         2        2.0000           -0.8553368             -23.2749
         3        2.0000           -0.8537086             -23.2306
         4        2.0000           -0.7865724             -21.4037
         5        2.0000           -0.7691511             -20.9297
         6        2.0000           -0.7681957             -20.9037
         7        2.0000           -0.7530927             -20.4927
         8        2.0000           -0.7176947             -19.5295
         9        2.0000           -0.7169513             -19.5092
        10        2.0000           -0.7086405             -19.2831
        11        2.0000           -0.6217915             -16.9198
        12        2.0000           -0.6156544             -16.7528 (HOMO)
        13                         -0.4088579             -11.1256 (LUMO)
        14                         -0.2280902              -6.2067
        15                         -0.1351318              -3.6771
        16                         -0.1304792              -3.5505
        17                         -0.0336818              -0.9165
        18                         -0.0202892              -0.5521
        19                          0.0721524               1.9634
        20                          0.0787852               2.1439
        21                          0.3006027               8.1798
        22                          0.3012846               8.1984
      -------------------------------------------------------------
                  HL-Gap            0.2067965 Eh            5.6272 eV

     #   Z          covCN         q      C6AA      α(0)
     1   7 N        2.652    -0.234    26.126     7.591
     2   6 C        2.730     0.256    22.691     7.799
     3   7 N        2.653    -0.218    25.756     7.537
     4   1 H        0.860     0.237     0.935     1.515
     5   1 H        0.860     0.235     0.943     1.521
     6   7 N        2.652    -0.217    25.739     7.535
     7   1 H        0.860     0.234     0.950     1.527
     8   1 H        0.860     0.234     0.948     1.525
     9   1 H        0.860     0.238     0.933     1.513
    10   1 H        0.860     0.235     0.942     1.520

Wiberg/Mayer (AO) data.
largest (>0.10) Wiberg bond orders for each atom

     #   Z sym  total        # sym  WBO       # sym  WBO       # sym  WBO
 ---------------------------------------------------------------------------
     1   7 N    3.373 --     2 C    1.299     7 H    0.925     8 H    0.924
     2   6 C    3.975 --     6 N    1.336     3 N    1.336     1 N    1.299
     3   7 N    3.427 --     2 C    1.336     5 H    0.925     4 H    0.925
                             6 N    0.112
     4   1 H    0.944 --     3 N    0.925
     5   1 H    0.945 --     3 N    0.925
     6   7 N    3.427 --     2 C    1.336    10 H    0.925     9 H    0.925
                             3 N    0.112
     7   1 H    0.945 --     1 N    0.925
     8   1 H    0.945 --     1 N    0.924
     9   1 H    0.944 --     6 N    0.925
    10   1 H    0.945 --     6 N    0.925
 ---------------------------------------------------------------------------

molecular dipole:
                 x           y           z       tot (Debye)
 q only:        0.022      -0.048      -0.005
   full:        0.021      -0.053       0.009       0.145

           -------------------------------------------------
          | TOTAL ENERGY              -13.556417347006 Eh   |
          | GRADIENT NORM               0.000217570277 Eh/α |
          | HOMO-LUMO GAP               5.627218125799 eV   |
           -------------------------------------------------

 * finished run on 2022/11/03 at 12:39:57.514
