   * xtb version 6.5.1 (b24c23e) compiled by 'conda@728c89f4b128' on 2022-07-12
          program call               : /home/chase/psi4conda/envs/xtbenv/bin/xtb --gfn 2 --chrg 1 --uhf 0 guan-opt-1-2-300_preQMOPTprefit_xyzformat.xyz --opt --input xtb-opt-1-2-300_constr.txt

   ID    Z sym.   atoms
    1    7 N      1, 3, 6
    2    6 C      2
    3    1 H      4, 5, 7-10
constraining angle 7 1 2 6 to  299.9819412°, actual value:  -60.0180588°
constraining angle 8 1 2 6 to  119.9819515°, actual value:  119.9819515°
constraining angle 9 6 2 1 to  359.9910131°, actual value:   -0.0089869°
constraining angle 10 6 2 1 to  180.0041472°, actual value: -179.9958528°
constraining angle 4 3 2 1 to  359.9931876°, actual value:   -0.0068124°
constraining angle 5 3 2 1 to  179.9969535°, actual value:  179.9969535°

          :  Hamiltonian                  GFN2-xTB          :
 * total energy  :   -13.5383866 Eh     change       -0.6441248E-10 Eh
 * total energy  :   -13.5419226 Eh     change       -0.3536025E-02 Eh
 * total energy  :   -13.5409347 Eh     change        0.9879622E-03 Eh
 * total energy  :   -13.5425433 Eh     change       -0.1608628E-02 Eh
 * total energy  :   -13.5426321 Eh     change       -0.8875673E-04 Eh
 * total energy  :   -13.5426794 Eh     change       -0.4736774E-04 Eh
 * total energy  :   -13.5426861 Eh     change       -0.6690400E-05 Eh
 * total energy  :   -13.5426883 Eh     change       -0.2125424E-05 Eh
 * total energy  :   -13.5426890 Eh     change       -0.7580279E-06 Eh
 * total energy  :   -13.5426894 Eh     change       -0.3859335E-06 Eh
 * total energy  :   -13.5426895 Eh     change       -0.1127940E-06 Eh
   *** GEOMETRY OPTIMIZATION CONVERGED AFTER 11 ITERATIONS ***

 final structure:
================
10
 xtb: 6.5.1 (b24c23e)
N           -0.57337991945984        1.18907527361158       -0.19638398667089
C            0.01193662965547       -0.01906175850114       -0.05193395514074
N            1.31127335042131       -0.08521281488595        0.19727853890336
H            1.85884684296090        0.75851536843470        0.27775230772359
H            1.79321801341268       -0.96380193884857        0.31382637375207
N           -0.73200939690071       -1.11357922719951       -0.01935304259667
H           -1.13046225870541        1.40911680873118       -1.00327045307738
H           -0.47095570175644        1.90772808681565        0.49803245032124
H           -1.73549510992532       -1.04857584379234       -0.10259969555122
H           -0.33293444970263       -2.03419694436561        0.08660548233663

          :  Hamiltonian                  GFN2-xTB          :
         :: total energy             -13.542689509250 Eh    ::
         :: gradient norm              0.000378196882 Eh/a0 ::
         :: HOMO-LUMO gap              4.611910151317 eV    ::
         :: SCC energy               -13.739208785906 Eh    ::
         :: -> dispersion             -0.003411350306 Eh    ::
         :: repulsion energy           0.196468270709 Eh    ::

    * Orbital Energies and Occupations

         #    Occupation            Energy/Eh            Energy/eV
      -------------------------------------------------------------
         1        2.0000           -0.9064729             -24.6664
         2        2.0000           -0.8567659             -23.3138
         3        2.0000           -0.8491232             -23.1058
         4        2.0000           -0.7868497             -21.4113
         5        2.0000           -0.7684901             -20.9117
         6        2.0000           -0.7642785             -20.7971
         7        2.0000           -0.7589880             -20.6531
         8        2.0000           -0.7206034             -19.6086
         9        2.0000           -0.7140025             -19.4290
        10        2.0000           -0.6944846             -18.8979
        11        2.0000           -0.6282264             -17.0949
        12        2.0000           -0.5986343             -16.2897 (HOMO)
        13                         -0.4291497             -11.6778 (LUMO)
        14                         -0.2247564              -6.1159
        15                         -0.1429125              -3.8888
        16                         -0.1320974              -3.5946
        17                         -0.0335856              -0.9139
        18                          0.0053301               0.1450
        19                          0.0710768               1.9341
        20                          0.0819081               2.2288
        21                          0.2792217               7.5980
        22                          0.2866853               7.8011
      -------------------------------------------------------------
                  HL-Gap            0.1694846 Eh            4.6119 eV

     #   Z          covCN         q      C6AA      α(0)
     1   7 N        2.650    -0.272    27.047     7.724
     2   6 C        2.730     0.261    22.608     7.784
     3   7 N        2.652    -0.208    25.521     7.503
     4   1 H        0.860     0.244     0.905     1.490
     5   1 H        0.860     0.237     0.934     1.514
     6   7 N        2.651    -0.206    25.481     7.497
     7   1 H        0.860     0.230     0.967     1.540
     8   1 H        0.860     0.230     0.963     1.537
     9   1 H        0.860     0.245     0.902     1.487
    10   1 H        0.860     0.238     0.932     1.512

Wiberg/Mayer (AO) data.
largest (>0.10) Wiberg bond orders for each atom

     #   Z sym  total        # sym  WBO       # sym  WBO       # sym  WBO
 ---------------------------------------------------------------------------
     1   7 N    3.239 --     2 C    1.218     7 H    0.918     8 H    0.916
     2   6 C    3.973 --     6 N    1.372     3 N    1.370     1 N    1.218
     3   7 N    3.465 --     2 C    1.370     5 H    0.923     4 H    0.921
                             6 N    0.137
     4   1 H    0.940 --     3 N    0.921
     5   1 H    0.944 --     3 N    0.923
     6   7 N    3.464 --     2 C    1.372    10 H    0.923     9 H    0.921
                             3 N    0.137
     7   1 H    0.947 --     1 N    0.918
     8   1 H    0.947 --     1 N    0.916
     9   1 H    0.940 --     6 N    0.921
    10   1 H    0.943 --     6 N    0.923
 ---------------------------------------------------------------------------

molecular dipole:
                 x           y           z       tot (Debye)
 q only:        0.085      -0.195       0.048
   full:        0.096      -0.217       0.032       0.609

           -------------------------------------------------
          | TOTAL ENERGY              -13.542689509250 Eh   |
          | GRADIENT NORM               0.000378196882 Eh/α |
          | HOMO-LUMO GAP               4.611910151317 eV   |
           -------------------------------------------------

 * finished run on 2022/11/03 at 12:40:38.181
