   * xtb version 6.5.1 (b24c23e) compiled by 'conda@728c89f4b128' on 2022-07-12
          program call               : /home/chase/psi4conda/envs/xtbenv/bin/xtb --gfn 2 --chrg 1 --uhf 0 guan-opt-1-2-180_preQMOPTprefit_xyzformat.xyz --opt --input xtb-opt-1-2-180_constr.txt

   ID    Z sym.   atoms
    1    7 N      1, 3, 6
    2    6 C      2
    3    1 H      4, 5, 7-10
constraining angle 7 1 2 6 to  180.0000133°, actual value: -179.9999867°
constraining angle 8 1 2 6 to  359.9998574°, actual value:   -0.0001426°
constraining angle 9 6 2 1 to    0.0006279°, actual value:    0.0006279°
constraining angle 10 6 2 1 to  179.9992706°, actual value:  179.9992706°
constraining angle 4 3 2 1 to    0.0006474°, actual value:    0.0006474°
constraining angle 5 3 2 1 to  180.0004202°, actual value: -179.9995798°

          :  Hamiltonian                  GFN2-xTB          :
 * total energy  :   -13.5606746 Eh     change       -0.8268941E-11 Eh
 * total energy  :   -13.5617942 Eh     change       -0.1119607E-02 Eh
 * total energy  :   -13.5618460 Eh     change       -0.5181069E-04 Eh
 * total energy  :   -13.5618580 Eh     change       -0.1195606E-04 Eh
 * total energy  :   -13.5618459 Eh     change        0.1203945E-04 Eh
 * total energy  :   -13.5618624 Eh     change       -0.1644492E-04 Eh
 * total energy  :   -13.5618630 Eh     change       -0.6044203E-06 Eh
   *** GEOMETRY OPTIMIZATION CONVERGED AFTER 7 ITERATIONS ***

 final structure:
================
10
 xtb: 6.5.1 (b24c23e)
N           -0.57870838288622        1.18401525566780       -0.16416443621433
C            0.00000300347494        0.00000255407905       -0.00000251934307
N            1.17334879265251       -0.08589033931180        0.61613188964283
H            1.64301966000277        0.73263762273538        0.96715709306361
H            1.63111957865165       -0.97231721336226        0.75211540664048
N           -0.59463334788684       -1.09811656305714       -0.45197784166316
H           -0.14700171479803        2.03006421986365        0.16994400410254
H           -1.46784145172846        1.27383927775387       -0.62803053451391
H           -1.48410753835255       -1.05775641913498       -0.92208843604018
H           -0.17515858912976       -2.00647037523356       -0.33913460567481

          :  Hamiltonian                  GFN2-xTB          :
         :: total energy             -13.561862960912 Eh    ::
         :: gradient norm              0.000230713534 Eh/a0 ::
         :: HOMO-LUMO gap              6.008155725477 eV    ::
         :: SCC energy               -13.761608309722 Eh    ::
         :: -> dispersion             -0.003410844576 Eh    ::
         :: repulsion energy           0.199743391007 Eh    ::

    * Orbital Energies and Occupations

         #    Occupation            Energy/Eh            Energy/eV
      -------------------------------------------------------------
         1        2.0000           -0.9077631             -24.7015
         2        2.0000           -0.8554785             -23.2788
         3        2.0000           -0.8554784             -23.2788
         4        2.0000           -0.7873741             -21.4255
         5        2.0000           -0.7691941             -20.9308
         6        2.0000           -0.7691939             -20.9308
         7        2.0000           -0.7494176             -20.3927
         8        2.0000           -0.7179876             -19.5374
         9        2.0000           -0.7179872             -19.5374
        10        2.0000           -0.7160371             -19.4844
        11        2.0000           -0.6198707             -16.8675
        12        2.0000           -0.6198704             -16.8675 (HOMO)
        13                         -0.3990748             -10.8594 (LUMO)
        14                         -0.2305064              -6.2724
        15                         -0.1310120              -3.5650
        16                         -0.1310101              -3.5650
        17                         -0.0342056              -0.9308
        18                         -0.0342010              -0.9307
        19                          0.0749892               2.0406
        20                          0.0783229               2.1313
        21                          0.3099538               8.4343
        22                          0.3099552               8.4343
      -------------------------------------------------------------
                  HL-Gap            0.2207957 Eh            6.0082 eV

     #   Z          covCN         q      C6AA      α(0)
     1   7 N        2.653    -0.221    25.826     7.548
     2   6 C        2.731     0.255    22.705     7.801
     3   7 N        2.653    -0.221    25.826     7.548
     4   1 H        0.860     0.235     0.946     1.523
     5   1 H        0.860     0.235     0.946     1.523
     6   7 N        2.653    -0.221    25.826     7.548
     7   1 H        0.860     0.235     0.946     1.523
     8   1 H        0.860     0.235     0.946     1.523
     9   1 H        0.860     0.235     0.946     1.523
    10   1 H        0.860     0.235     0.946     1.523

Wiberg/Mayer (AO) data.
largest (>0.10) Wiberg bond orders for each atom

     #   Z sym  total        # sym  WBO       # sym  WBO       # sym  WBO
 ---------------------------------------------------------------------------
     1   7 N    3.413 --     2 C    1.325     7 H    0.926     8 H    0.926
                             3 N    0.103     6 N    0.103
     2   6 C    3.976 --     3 N    1.325     6 N    1.325     1 N    1.325
     3   7 N    3.413 --     2 C    1.325     5 H    0.926     4 H    0.926
                             6 N    0.103     1 N    0.103
     4   1 H    0.945 --     3 N    0.926
     5   1 H    0.945 --     3 N    0.926
     6   7 N    3.413 --     2 C    1.325    10 H    0.926     9 H    0.926
                             3 N    0.103     1 N    0.103
     7   1 H    0.945 --     1 N    0.926
     8   1 H    0.945 --     1 N    0.926
     9   1 H    0.945 --     6 N    0.926
    10   1 H    0.945 --     6 N    0.926
 ---------------------------------------------------------------------------

molecular dipole:
                 x           y           z       tot (Debye)
 q only:        0.000      -0.000      -0.000
   full:        0.000      -0.000      -0.000       0.000

           -------------------------------------------------
          | TOTAL ENERGY              -13.561862960912 Eh   |
          | GRADIENT NORM               0.000230713534 Eh/α |
          | HOMO-LUMO GAP               6.008155725477 eV   |
           -------------------------------------------------

 * finished run on 2022/11/03 at 12:40:21.920
