   * xtb version 6.5.1 (b24c23e) compiled by 'conda@728c89f4b128' on 2022-07-12
          program call               : /home/chase/psi4conda/envs/xtbenv/bin/xtb --gfn 2 --chrg 1 --uhf 0 guan-opt-1-2-210_preQMOPTprefit_xyzformat.xyz --opt --input xtb-opt-1-2-210_constr.txt

   ID    Z sym.   atoms
    1    7 N      1, 3, 6
    2    6 C      2
    3    1 H      4, 5, 7-10
constraining angle 7 1 2 6 to  210.0261575°, actual value: -149.9738425°
constraining angle 8 1 2 6 to   30.0224294°, actual value:   30.0224294°
constraining angle 9 6 2 1 to    0.0097108°, actual value:    0.0097108°
constraining angle 10 6 2 1 to  179.9946165°, actual value:  179.9946165°
constraining angle 4 3 2 1 to    0.0103321°, actual value:    0.0103321°
constraining angle 5 3 2 1 to  180.0044547°, actual value: -179.9955453°

          :  Hamiltonian                  GFN2-xTB          :
 * total energy  :   -13.5521586 Eh     change       -0.2317133E-09 Eh
 * total energy  :   -13.5556250 Eh     change       -0.3466440E-02 Eh
 * total energy  :   -13.5527521 Eh     change        0.2872905E-02 Eh
 * total energy  :   -13.5563474 Eh     change       -0.3595276E-02 Eh
 * total energy  :   -13.5563789 Eh     change       -0.3148877E-04 Eh
 * total energy  :   -13.5564125 Eh     change       -0.3364435E-04 Eh
 * total energy  :   -13.5564158 Eh     change       -0.3254248E-05 Eh
 * total energy  :   -13.5564167 Eh     change       -0.9001369E-06 Eh
 * total energy  :   -13.5564169 Eh     change       -0.1687992E-06 Eh
   *** GEOMETRY OPTIMIZATION CONVERGED AFTER 9 ITERATIONS ***

 final structure:
================
10
 xtb: 6.5.1 (b24c23e)
N           -0.57547764340129        1.18767563118825       -0.16392280576948
C            0.00081930484396        0.00164019975231        0.03752374684759
N            1.32428170870681       -0.10067187105180        0.01459187120019
H            1.90623344374442        0.70422516417277       -0.15239650731190
H            1.78830618745625       -0.98243376955434        0.16265380153283
N           -0.74770564540677       -1.08736291006032        0.16278727876031
H           -0.11281842181697        1.91554221047519       -0.68219825901280
H           -1.49233235556728        1.39296206449504        0.19653650757584
H           -1.75221504647656       -1.03624295355210        0.10855910265397
H           -0.33905152208257       -1.99532776586500        0.31581924352345

          :  Hamiltonian                  GFN2-xTB          :
         :: total energy             -13.556416853039 Eh    ::
         :: gradient norm              0.000985265094 Eh/a0 ::
         :: HOMO-LUMO gap              5.626856784386 eV    ::
         :: SCC energy               -13.755165955526 Eh    ::
         :: -> dispersion             -0.003410876028 Eh    ::
         :: repulsion energy           0.198724148271 Eh    ::

    * Orbital Energies and Occupations

         #    Occupation            Energy/Eh            Energy/eV
      -------------------------------------------------------------
         1        2.0000           -0.9070457             -24.6820
         2        2.0000           -0.8553317             -23.2748
         3        2.0000           -0.8537077             -23.2306
         4        2.0000           -0.7865909             -21.4042
         5        2.0000           -0.7691613             -20.9299
         6        2.0000           -0.7682071             -20.9040
         7        2.0000           -0.7530989             -20.4929
         8        2.0000           -0.7176969             -19.5295
         9        2.0000           -0.7169535             -19.5093
        10        2.0000           -0.7086275             -19.2827
        11        2.0000           -0.6217982             -16.9200
        12        2.0000           -0.6156518             -16.7527 (HOMO)
        13                         -0.4088686             -11.1259 (LUMO)
        14                         -0.2280243              -6.2049
        15                         -0.1350406              -3.6746
        16                         -0.1304278              -3.5491
        17                         -0.0336681              -0.9162
        18                         -0.0200958              -0.5468
        19                          0.0722025               1.9647
        20                          0.0788416               2.1454
        21                          0.3006471               8.1810
        22                          0.3013171               8.1993
      -------------------------------------------------------------
                  HL-Gap            0.2067832 Eh            5.6269 eV

     #   Z          covCN         q      C6AA      α(0)
     1   7 N        2.652    -0.234    26.126     7.591
     2   6 C        2.730     0.256    22.691     7.799
     3   7 N        2.653    -0.218    25.755     7.537
     4   1 H        0.860     0.237     0.935     1.515
     5   1 H        0.860     0.235     0.943     1.521
     6   7 N        2.652    -0.217    25.739     7.535
     7   1 H        0.860     0.234     0.948     1.525
     8   1 H        0.860     0.234     0.950     1.527
     9   1 H        0.860     0.238     0.933     1.513
    10   1 H        0.860     0.235     0.942     1.520

Wiberg/Mayer (AO) data.
largest (>0.10) Wiberg bond orders for each atom

     #   Z sym  total        # sym  WBO       # sym  WBO       # sym  WBO
 ---------------------------------------------------------------------------
     1   7 N    3.373 --     2 C    1.299     8 H    0.925     7 H    0.924
     2   6 C    3.975 --     6 N    1.336     3 N    1.336     1 N    1.299
     3   7 N    3.427 --     2 C    1.336     5 H    0.925     4 H    0.925
                             6 N    0.112
     4   1 H    0.944 --     3 N    0.925
     5   1 H    0.945 --     3 N    0.925
     6   7 N    3.427 --     2 C    1.336    10 H    0.925     9 H    0.925
                             3 N    0.112
     7   1 H    0.945 --     1 N    0.924
     8   1 H    0.945 --     1 N    0.925
     9   1 H    0.944 --     6 N    0.925
    10   1 H    0.945 --     6 N    0.925
 ---------------------------------------------------------------------------

molecular dipole:
                 x           y           z       tot (Debye)
 q only:        0.020      -0.049      -0.004
   full:        0.021      -0.052       0.010       0.146

           -------------------------------------------------
          | TOTAL ENERGY              -13.556416853039 Eh   |
          | GRADIENT NORM               0.000985265094 Eh/α |
          | HOMO-LUMO GAP               5.626856784386 eV   |
           -------------------------------------------------

 * finished run on 2022/11/03 at 12:41:08.602
