   * xtb version 6.5.1 (b24c23e) compiled by 'conda@728c89f4b128' on 2022-07-12
          program call               : /home/chase/psi4conda/envs/xtbenv/bin/xtb --gfn 2 --chrg 1 --uhf 0 guan-opt-1-2-360_preQMOPTprefit_xyzformat.xyz --opt --input xtb-opt-1-2-360_constr.txt

   ID    Z sym.   atoms
    1    7 N      1, 3, 6
    2    6 C      2
    3    1 H      4, 5, 7-10
constraining angle 7 1 2 6 to    0.0001278°, actual value:    0.0001278°
constraining angle 8 1 2 6 to  179.9996637°, actual value:  179.9996637°
constraining angle 9 6 2 1 to    0.0000220°, actual value:    0.0000220°
constraining angle 10 6 2 1 to  180.0001026°, actual value: -179.9998974°
constraining angle 4 3 2 1 to  359.9996681°, actual value:   -0.0003319°
constraining angle 5 3 2 1 to  180.0000120°, actual value: -179.9999880°

          :  Hamiltonian                  GFN2-xTB          :
 * total energy  :   -13.5606781 Eh     change       -0.2692957E-11 Eh
 * total energy  :   -13.5617947 Eh     change       -0.1116561E-02 Eh
 * total energy  :   -13.5618462 Eh     change       -0.5149174E-04 Eh
 * total energy  :   -13.5618582 Eh     change       -0.1204343E-04 Eh
 * total energy  :   -13.5618612 Eh     change       -0.3012754E-05 Eh
 * total energy  :   -13.5618517 Eh     change        0.9536566E-05 Eh
 * total energy  :   -13.5618630 Eh     change       -0.1135324E-04 Eh
 * total energy  :   -13.5618630 Eh     change        0.4313959E-08 Eh
 * total energy  :   -13.5618630 Eh     change       -0.7264873E-08 Eh
   *** GEOMETRY OPTIMIZATION CONVERGED AFTER 9 ITERATIONS ***

 final structure:
================
10
 xtb: 6.5.1 (b24c23e)
N           -0.57548469251510        1.18471223947649       -0.17092457474975
C            0.00000464893350        0.00000021364934       -0.00000595295392
N            1.29181423569784       -0.07373008933341        0.29955145281223
H            1.85470181389594        0.75478897015818        0.40207412926495
H            1.74947526283358       -0.96049652470083        0.43367418968854
N           -0.71631760098075       -1.11098088233059       -0.12864037985285
H           -1.55302002797278        1.26517551916014       -0.39840481082604
H           -0.05259479189836        2.04018607567937       -0.07847043343047
H           -1.69686938710091       -1.07968554717642       -0.35521434073310
H           -0.30167146089296       -2.01996496458225       -0.00368528921958

          :  Hamiltonian                  GFN2-xTB          :
         :: total energy             -13.561863029712 Eh    ::
         :: gradient norm              0.000073673219 Eh/a0 ::
         :: HOMO-LUMO gap              6.006922520852 eV    ::
         :: SCC energy               -13.761561419056 Eh    ::
         :: -> dispersion             -0.003410835983 Eh    ::
         :: repulsion energy           0.199696431823 Eh    ::

    * Orbital Energies and Occupations

         #    Occupation            Energy/Eh            Energy/eV
      -------------------------------------------------------------
         1        2.0000           -0.9077523             -24.7012
         2        2.0000           -0.8554762             -23.2787
         3        2.0000           -0.8554762             -23.2787
         4        2.0000           -0.7873630             -21.4252
         5        2.0000           -0.7691871             -20.9306
         6        2.0000           -0.7691871             -20.9306
         7        2.0000           -0.7494032             -20.3923
         8        2.0000           -0.7179984             -19.5377
         9        2.0000           -0.7179984             -19.5377
        10        2.0000           -0.7160603             -19.4850
        11        2.0000           -0.6198748             -16.8677
        12        2.0000           -0.6198748             -16.8677 (HOMO)
        13                         -0.3991244             -10.8607 (LUMO)
        14                         -0.2305570              -6.2738
        15                         -0.1310169              -3.5652
        16                         -0.1310166              -3.5651
        17                         -0.0342031              -0.9307
        18                         -0.0342030              -0.9307
        19                          0.0751266               2.0443
        20                          0.0780358               2.1235
        21                          0.3097443               8.4286
        22                          0.3097452               8.4286
      -------------------------------------------------------------
                  HL-Gap            0.2207503 Eh            6.0069 eV

     #   Z          covCN         q      C6AA      α(0)
     1   7 N        2.653    -0.221    25.827     7.548
     2   6 C        2.730     0.255    22.707     7.801
     3   7 N        2.653    -0.221    25.827     7.548
     4   1 H        0.860     0.235     0.945     1.523
     5   1 H        0.860     0.235     0.945     1.523
     6   7 N        2.653    -0.221    25.827     7.548
     7   1 H        0.860     0.235     0.945     1.523
     8   1 H        0.860     0.235     0.945     1.523
     9   1 H        0.860     0.235     0.945     1.523
    10   1 H        0.860     0.235     0.945     1.523

Wiberg/Mayer (AO) data.
largest (>0.10) Wiberg bond orders for each atom

     #   Z sym  total        # sym  WBO       # sym  WBO       # sym  WBO
 ---------------------------------------------------------------------------
     1   7 N    3.413 --     2 C    1.325     7 H    0.926     8 H    0.926
                             3 N    0.103     6 N    0.103
     2   6 C    3.976 --     3 N    1.325     6 N    1.325     1 N    1.325
     3   7 N    3.413 --     2 C    1.325     4 H    0.926     5 H    0.926
                             6 N    0.103     1 N    0.103
     4   1 H    0.945 --     3 N    0.926
     5   1 H    0.945 --     3 N    0.926
     6   7 N    3.413 --     2 C    1.325     9 H    0.926    10 H    0.926
                             3 N    0.103     1 N    0.103
     7   1 H    0.945 --     1 N    0.926
     8   1 H    0.945 --     1 N    0.926
     9   1 H    0.945 --     6 N    0.926
    10   1 H    0.945 --     6 N    0.926
 ---------------------------------------------------------------------------

molecular dipole:
                 x           y           z       tot (Debye)
 q only:        0.000       0.000      -0.000
   full:        0.000       0.000      -0.000       0.000

           -------------------------------------------------
          | TOTAL ENERGY              -13.561863029712 Eh   |
          | GRADIENT NORM               0.000073673219 Eh/α |
          | HOMO-LUMO GAP               6.006922520852 eV   |
           -------------------------------------------------

 * finished run on 2022/11/03 at 12:39:53.999
