   * xtb version 6.5.1 (b24c23e) compiled by 'conda@728c89f4b128' on 2022-07-12
          program call               : /home/chase/psi4conda/envs/xtbenv/bin/xtb --gfn 2 --chrg 1 --uhf 0 guan-opt-1-2-330_preQMOPTprefit_xyzformat.xyz --opt --input xtb-opt-1-2-330_constr.txt

   ID    Z sym.   atoms
    1    7 N      1, 3, 6
    2    6 C      2
    3    1 H      4, 5, 7-10
constraining angle 7 1 2 6 to  329.9767300°, actual value:  -30.0232700°
constraining angle 8 1 2 6 to  149.9735119°, actual value:  149.9735119°
constraining angle 9 6 2 1 to  359.9901870°, actual value:   -0.0098130°
constraining angle 10 6 2 1 to  180.0051604°, actual value: -179.9948396°
constraining angle 4 3 2 1 to  359.9897187°, actual value:   -0.0102813°
constraining angle 5 3 2 1 to  179.9962043°, actual value:  179.9962043°

          :  Hamiltonian                  GFN2-xTB          :
 * total energy  :   -13.5521581 Eh     change       -0.3771206E-11 Eh
 * total energy  :   -13.5556235 Eh     change       -0.3465390E-02 Eh
 * total energy  :   -13.5527510 Eh     change        0.2872558E-02 Eh
 * total energy  :   -13.5563469 Eh     change       -0.3595880E-02 Eh
 * total energy  :   -13.5563784 Eh     change       -0.3151592E-04 Eh
 * total energy  :   -13.5564123 Eh     change       -0.3392050E-04 Eh
 * total energy  :   -13.5564156 Eh     change       -0.3255037E-05 Eh
 * total energy  :   -13.5564165 Eh     change       -0.9062333E-06 Eh
 * total energy  :   -13.5564166 Eh     change       -0.1684162E-06 Eh
   *** GEOMETRY OPTIMIZATION CONVERGED AFTER 9 ITERATIONS ***

 final structure:
================
10
 xtb: 6.5.1 (b24c23e)
N           -0.57327556715720        1.18544778852894       -0.18621764613977
C            0.00774164239874       -0.00590464270245       -0.03629349849589
N            1.30226020142443       -0.07678245574093        0.24960608667594
H            1.85868821054844        0.75598682615169        0.35589484812647
H            1.76886909879337       -0.96149080157098        0.36923804812323
N           -0.72542979667507       -1.11170093457364       -0.07608436755101
H           -1.40419438481959        1.29709189540631       -0.74282067458585
H           -0.20013712042206        2.01099090738673        0.25161631199819
H           -1.72164219774296       -1.06951641804684       -0.21882895004231
H           -0.31284208634811       -2.02411716483883        0.03384384189100

          :  Hamiltonian                  GFN2-xTB          :
         :: total energy             -13.556416625120 Eh    ::
         :: gradient norm              0.000991121615 Eh/a0 ::
         :: HOMO-LUMO gap              5.626848395101 eV    ::
         :: SCC energy               -13.755165874070 Eh    ::
         :: -> dispersion             -0.003410875970 Eh    ::
         :: repulsion energy           0.198724302107 Eh    ::

    * Orbital Energies and Occupations

         #    Occupation            Energy/Eh            Energy/eV
      -------------------------------------------------------------
         1        2.0000           -0.9070457             -24.6820
         2        2.0000           -0.8553318             -23.2748
         3        2.0000           -0.8537074             -23.2306
         4        2.0000           -0.7865909             -21.4042
         5        2.0000           -0.7691613             -20.9299
         6        2.0000           -0.7682070             -20.9040
         7        2.0000           -0.7530990             -20.4929
         8        2.0000           -0.7176967             -19.5295
         9        2.0000           -0.7169533             -19.5093
        10        2.0000           -0.7086271             -19.2827
        11        2.0000           -0.6217983             -16.9200
        12        2.0000           -0.6156514             -16.7527 (HOMO)
        13                         -0.4088685             -11.1259 (LUMO)
        14                         -0.2280239              -6.2048
        15                         -0.1350408              -3.6746
        16                         -0.1304283              -3.5491
        17                         -0.0336666              -0.9161
        18                         -0.0200973              -0.5469
        19                          0.0722010               1.9647
        20                          0.0788438               2.1455
        21                          0.3006437               8.1809
        22                          0.3013236               8.1994
      -------------------------------------------------------------
                  HL-Gap            0.2067829 Eh            5.6268 eV

     #   Z          covCN         q      C6AA      α(0)
     1   7 N        2.652    -0.234    26.126     7.591
     2   6 C        2.730     0.256    22.691     7.799
     3   7 N        2.653    -0.218    25.755     7.537
     4   1 H        0.860     0.237     0.935     1.515
     5   1 H        0.860     0.235     0.943     1.521
     6   7 N        2.652    -0.217    25.739     7.535
     7   1 H        0.860     0.234     0.950     1.527
     8   1 H        0.860     0.234     0.948     1.525
     9   1 H        0.860     0.238     0.933     1.513
    10   1 H        0.860     0.235     0.942     1.520

Wiberg/Mayer (AO) data.
largest (>0.10) Wiberg bond orders for each atom

     #   Z sym  total        # sym  WBO       # sym  WBO       # sym  WBO
 ---------------------------------------------------------------------------
     1   7 N    3.373 --     2 C    1.299     7 H    0.925     8 H    0.924
     2   6 C    3.975 --     6 N    1.336     3 N    1.336     1 N    1.299
     3   7 N    3.427 --     2 C    1.336     5 H    0.925     4 H    0.925
                             6 N    0.112
     4   1 H    0.944 --     3 N    0.925
     5   1 H    0.945 --     3 N    0.925
     6   7 N    3.427 --     2 C    1.336    10 H    0.925     9 H    0.925
                             3 N    0.112
     7   1 H    0.945 --     1 N    0.925
     8   1 H    0.945 --     1 N    0.924
     9   1 H    0.944 --     6 N    0.925
    10   1 H    0.945 --     6 N    0.925
 ---------------------------------------------------------------------------

molecular dipole:
                 x           y           z       tot (Debye)
 q only:        0.018      -0.047       0.017
   full:        0.022      -0.053       0.005       0.146

           -------------------------------------------------
          | TOTAL ENERGY              -13.556416625120 Eh   |
          | GRADIENT NORM               0.000991121615 Eh/α |
          | HOMO-LUMO GAP               5.626848395101 eV   |
           -------------------------------------------------

 * finished run on 2022/11/03 at 12:40:29.547
