   * xtb version 6.5.1 (b24c23e) compiled by 'conda@728c89f4b128' on 2022-07-12
          program call               : /home/chase/psi4conda/envs/xtbenv/bin/xtb --gfn 2 --chrg 1 --uhf 0 guan-opt-1-2-060_preQMOPTprefit_xyzformat.xyz --opt --input xtb-opt-1-2-060_constr.txt

   ID    Z sym.   atoms
    1    7 N      1, 3, 6
    2    6 C      2
    3    1 H      4, 5, 7-10
constraining angle 7 1 2 6 to   60.0179781°, actual value:   60.0179781°
constraining angle 8 1 2 6 to  240.0177445°, actual value: -119.9822555°
constraining angle 9 6 2 1 to    0.0088151°, actual value:    0.0088151°
constraining angle 10 6 2 1 to  179.9961164°, actual value:  179.9961164°
constraining angle 4 3 2 1 to    0.0065274°, actual value:    0.0065274°
constraining angle 5 3 2 1 to  180.0025955°, actual value: -179.9974045°

          :  Hamiltonian                  GFN2-xTB          :
 * total energy  :   -13.5383757 Eh     change       -0.6214940E-10 Eh
 * total energy  :   -13.5419192 Eh     change       -0.3543477E-02 Eh
 * total energy  :   -13.5409217 Eh     change        0.9975541E-03 Eh
 * total energy  :   -13.5425434 Eh     change       -0.1621768E-02 Eh
 * total energy  :   -13.5426320 Eh     change       -0.8852955E-04 Eh
 * total energy  :   -13.5426795 Eh     change       -0.4751568E-04 Eh
 * total energy  :   -13.5426862 Eh     change       -0.6695304E-05 Eh
 * total energy  :   -13.5426883 Eh     change       -0.2141368E-05 Eh
 * total energy  :   -13.5426891 Eh     change       -0.7645178E-06 Eh
 * total energy  :   -13.5426895 Eh     change       -0.3902810E-06 Eh
 * total energy  :   -13.5426896 Eh     change       -0.1137156E-06 Eh
   *** GEOMETRY OPTIMIZATION CONVERGED AFTER 11 ITERATIONS ***

 final structure:
================
10
 xtb: 6.5.1 (b24c23e)
N           -0.58422392528325        1.19068852894105       -0.14890840586157
C           -0.01220475650352       -0.01557846562448        0.05301024435643
N            1.26447841143233       -0.07854811886927        0.40067875157570
H            1.80447450996219        0.76624485054984        0.51434818798324
H            1.73611372589460       -0.95569237726647        0.56177267168312
N           -0.68315083373752       -1.12059124515505       -0.23205784944516
H           -1.43437582100343        1.45305819679216        0.31824213347186
H           -0.17851225154175        1.86557848403118       -0.77267844818860
H           -1.62126407775202       -1.06495116728664       -0.59946452300782
H           -0.29129598146763       -2.04020367611230       -0.09498973256723

          :  Hamiltonian                  GFN2-xTB          :
         :: total energy             -13.542689586564 Eh    ::
         :: gradient norm              0.000379926440 Eh/a0 ::
         :: HOMO-LUMO gap              4.611916037395 eV    ::
         :: SCC energy               -13.739208473533 Eh    ::
         :: -> dispersion             -0.003411350174 Eh    ::
         :: repulsion energy           0.196467879353 Eh    ::

    * Orbital Energies and Occupations

         #    Occupation            Energy/Eh            Energy/eV
      -------------------------------------------------------------
         1        2.0000           -0.9064728             -24.6664
         2        2.0000           -0.8567659             -23.3138
         3        2.0000           -0.8491232             -23.1058
         4        2.0000           -0.7868496             -21.4113
         5        2.0000           -0.7684900             -20.9117
         6        2.0000           -0.7642785             -20.7971
         7        2.0000           -0.7589878             -20.6531
         8        2.0000           -0.7206034             -19.6086
         9        2.0000           -0.7140025             -19.4290
        10        2.0000           -0.6944847             -18.8979
        11        2.0000           -0.6282263             -17.0949
        12        2.0000           -0.5986344             -16.2897 (HOMO)
        13                         -0.4291496             -11.6778 (LUMO)
        14                         -0.2247569              -6.1159
        15                         -0.1429131              -3.8889
        16                         -0.1320977              -3.5946
        17                         -0.0335859              -0.9139
        18                          0.0053294               0.1450
        19                          0.0710758               1.9341
        20                          0.0819079               2.2288
        21                          0.2792215               7.5980
        22                          0.2866849               7.8011
      -------------------------------------------------------------
                  HL-Gap            0.1694848 Eh            4.6119 eV

     #   Z          covCN         q      C6AA      α(0)
     1   7 N        2.650    -0.272    27.047     7.724
     2   6 C        2.730     0.261    22.608     7.784
     3   7 N        2.652    -0.208    25.521     7.503
     4   1 H        0.860     0.244     0.905     1.490
     5   1 H        0.860     0.237     0.934     1.514
     6   7 N        2.651    -0.206    25.481     7.497
     7   1 H        0.860     0.230     0.967     1.540
     8   1 H        0.860     0.230     0.963     1.537
     9   1 H        0.860     0.245     0.902     1.487
    10   1 H        0.860     0.238     0.932     1.512

Wiberg/Mayer (AO) data.
largest (>0.10) Wiberg bond orders for each atom

     #   Z sym  total        # sym  WBO       # sym  WBO       # sym  WBO
 ---------------------------------------------------------------------------
     1   7 N    3.239 --     2 C    1.218     7 H    0.918     8 H    0.916
     2   6 C    3.973 --     6 N    1.372     3 N    1.370     1 N    1.218
     3   7 N    3.465 --     2 C    1.370     5 H    0.923     4 H    0.921
                             6 N    0.137
     4   1 H    0.940 --     3 N    0.921
     5   1 H    0.944 --     3 N    0.923
     6   7 N    3.464 --     2 C    1.372    10 H    0.923     9 H    0.921
                             3 N    0.137
     7   1 H    0.947 --     1 N    0.918
     8   1 H    0.947 --     1 N    0.916
     9   1 H    0.940 --     6 N    0.921
    10   1 H    0.943 --     6 N    0.923
 ---------------------------------------------------------------------------

molecular dipole:
                 x           y           z       tot (Debye)
 q only:        0.094      -0.197       0.006
   full:        0.097      -0.217       0.027       0.609

           -------------------------------------------------
          | TOTAL ENERGY              -13.542689586564 Eh   |
          | GRADIENT NORM               0.000379926440 Eh/α |
          | HOMO-LUMO GAP               4.611916037395 eV   |
           -------------------------------------------------

 * finished run on 2022/11/03 at 12:40:02.002
