   * xtb version 6.5.1 (b24c23e) compiled by 'conda@728c89f4b128' on 2022-07-12
          program call               : /home/chase/psi4conda/envs/xtbenv/bin/xtb --gfn 2 --chrg -1 --uhf 0 acet-opt-1-2-062_preQMOPTprefit_xyzformat.xyz --opt --input xtb-opt-1-2-062_constr.txt

   ID    Z sym.   atoms
    1    6 C      1, 2
    2    8 O      3, 4
    3    1 H      5-7
constraining angle 6 1 2 3 to   61.9996741°, actual value:   61.9996741°

          :  Hamiltonian                  GFN2-xTB          :
 * total energy  :   -14.1646447 Eh     change       -0.1461942E-11 Eh
 * total energy  :   -14.1660399 Eh     change       -0.1395121E-02 Eh
 * total energy  :   -14.1661345 Eh     change       -0.9468978E-04 Eh
 * total energy  :   -14.1661375 Eh     change       -0.2914680E-05 Eh
 * total energy  :   -14.1661547 Eh     change       -0.1722394E-04 Eh
 * total energy  :   -14.1661557 Eh     change       -0.9822300E-06 Eh
   *** GEOMETRY OPTIMIZATION CONVERGED AFTER 6 ITERATIONS ***

 final structure:
================
7
 xtb: 6.5.1 (b24c23e)
C           -1.43274643143751       -0.22076098535454       -0.04498341378470
C            0.13464761501383        0.01038251872205        0.00217582134010
O            0.55198176982952        0.95299418121277       -0.68645385554419
O            0.77542240966118       -0.77347123861205        0.71711552378363
H           -1.94245572876507        0.69467719961783        0.25445963896437
H           -1.72838727982162       -0.46218568403373       -1.06588523119251
H           -1.71754436448034       -1.03495199155233        0.61988052643329

          :  Hamiltonian                  GFN2-xTB          :
         :: total energy             -14.166155663333 Eh    ::
         :: gradient norm              0.000561894240 Eh/a0 ::
         :: HOMO-LUMO gap              5.334041186888 eV    ::
         :: SCC energy               -14.283955834523 Eh    ::
         :: -> dispersion             -0.003141271157 Eh    ::
         :: repulsion energy           0.117799883926 Eh    ::

    * Orbital Energies and Occupations

         #    Occupation            Energy/Eh            Energy/eV
      -------------------------------------------------------------
         1        2.0000           -0.4589100             -12.4876
         2        2.0000           -0.4457222             -12.1287
         3        2.0000           -0.4138112             -11.2604
         4        2.0000           -0.3488945              -9.4939
         5        2.0000           -0.3180961              -8.6558
         6        2.0000           -0.3063971              -8.3375
         7        2.0000           -0.3053822              -8.3099
         8        2.0000           -0.2749579              -7.4820
         9        2.0000           -0.2671208              -7.2687
        10        2.0000           -0.1846268              -5.0240
        11        2.0000           -0.1693543              -4.6084
        12        2.0000           -0.1544538              -4.2029 (HOMO)
        13                          0.0415686               1.1311 (LUMO)
        14                          0.2948329               8.0228
        15                          0.3416528               9.2968
        16                          0.3828587              10.4181
        17                          0.3921196              10.6701
        18                          0.6332129              17.2306
        19                          0.8793994              23.9297
      -------------------------------------------------------------
                  HL-Gap            0.1960224 Eh            5.3340 eV

     #   Z          covCN         q      C6AA      α(0)
     1   6 C        3.742    -0.126    23.003     6.842
     2   6 C        2.678     0.367    20.769     7.458
     3   8 O        0.856    -0.607    26.302     6.876
     4   8 O        0.856    -0.605    26.252     6.869
     5   1 H        0.925    -0.010     3.233     2.812
     6   1 H        0.925    -0.010     3.237     2.814
     7   1 H        0.925    -0.009     3.211     2.802

Wiberg/Mayer (AO) data.
largest (>0.10) Wiberg bond orders for each atom

     #   Z sym  total        # sym  WBO       # sym  WBO       # sym  WBO
 ---------------------------------------------------------------------------
     1   6 C    3.969 --     7 H    0.993     5 H    0.987     6 H    0.986
                             2 C    0.884
     2   6 C    3.945 --     4 O    1.529     3 O    1.527     1 C    0.884
     3   8 O    1.830 --     2 C    1.527     4 O    0.230
     4   8 O    1.834 --     2 C    1.529     3 O    0.230
     5   1 H    1.000 --     1 C    0.987
     6   1 H    1.000 --     1 C    0.986
     7   1 H    1.000 --     1 C    0.993
 ---------------------------------------------------------------------------

molecular dipole:
                 x           y           z       tot (Debye)
 q only:       -0.989      -0.136      -0.015
   full:       -1.332      -0.178      -0.035       3.416

           -------------------------------------------------
          | TOTAL ENERGY              -14.166155663333 Eh   |
          | GRADIENT NORM               0.000561894240 Eh/α |
          | HOMO-LUMO GAP               5.334041186888 eV   |
           -------------------------------------------------

 * finished run on 2022/11/03 at 12:29:00.645
