   * xtb version 6.5.1 (b24c23e) compiled by 'conda@728c89f4b128' on 2022-07-12
          program call               : /home/chase/psi4conda/envs/xtbenv/bin/xtb --gfn 2 --chrg -1 --uhf 0 acet-opt-1-2-092_preQMOPTprefit_xyzformat.xyz --opt --input xtb-opt-1-2-092_constr.txt

   ID    Z sym.   atoms
    1    6 C      1, 2
    2    8 O      3, 4
    3    1 H      5-7
constraining angle 6 1 2 3 to   91.9986794°, actual value:   91.9986794°

          :  Hamiltonian                  GFN2-xTB          :
 * total energy  :   -14.1646361 Eh     change       -0.7815970E-12 Eh
 * total energy  :   -14.1660505 Eh     change       -0.1414397E-02 Eh
 * total energy  :   -14.1661280 Eh     change       -0.7750686E-04 Eh
 * total energy  :   -14.1661468 Eh     change       -0.1874333E-04 Eh
 * total energy  :   -14.1661649 Eh     change       -0.1818850E-04 Eh
 * total energy  :   -14.1661661 Eh     change       -0.1109491E-05 Eh
   *** GEOMETRY OPTIMIZATION CONVERGED AFTER 6 ITERATIONS ***

 final structure:
================
7
 xtb: 6.5.1 (b24c23e)
C           -1.43385117053529       -0.21337802133936       -0.04295973032086
C            0.13361674056627        0.01582637354053        0.00500209051406
O            0.52729805811246        1.11506373487306       -0.41097185524574
O            0.79942907661322       -0.93332608419526        0.44344902328692
H           -1.95673217401878        0.73963001568859        0.02397722578210
H           -1.68598903803516       -0.68778670690936       -0.99188476807963
H           -1.74285349270273       -0.86934532165819        0.76969701406315

          :  Hamiltonian                  GFN2-xTB          :
         :: total energy             -14.166166055550 Eh    ::
         :: gradient norm              0.000360873339 Eh/a0 ::
         :: HOMO-LUMO gap              5.337541177316 eV    ::
         :: SCC energy               -14.284009742597 Eh    ::
         :: -> dispersion             -0.003141357110 Eh    ::
         :: repulsion energy           0.117843415589 Eh    ::

    * Orbital Energies and Occupations

         #    Occupation            Energy/Eh            Energy/eV
      -------------------------------------------------------------
         1        2.0000           -0.4589029             -12.4874
         2        2.0000           -0.4457161             -12.1286
         3        2.0000           -0.4138404             -11.2612
         4        2.0000           -0.3488885              -9.4937
         5        2.0000           -0.3181140              -8.6563
         6        2.0000           -0.3059734              -8.3260
         7        2.0000           -0.3058365              -8.3222
         8        2.0000           -0.2748835              -7.4800
         9        2.0000           -0.2671594              -7.2698
        10        2.0000           -0.1846167              -5.0237
        11        2.0000           -0.1693160              -4.6073
        12        2.0000           -0.1544397              -4.2025 (HOMO)
        13                          0.0417113               1.1350 (LUMO)
        14                          0.2950300               8.0282
        15                          0.3416505               9.2968
        16                          0.3833713              10.4321
        17                          0.3914266              10.6513
        18                          0.6334425              17.2368
        19                          0.8797254              23.9385
      -------------------------------------------------------------
                  HL-Gap            0.1961510 Eh            5.3375 eV

     #   Z          covCN         q      C6AA      α(0)
     1   6 C        3.742    -0.126    23.002     6.842
     2   6 C        2.678     0.368    20.769     7.458
     3   8 O        0.856    -0.606    26.275     6.872
     4   8 O        0.856    -0.607    26.281     6.873
     5   1 H        0.925    -0.009     3.215     2.804
     6   1 H        0.924    -0.011     3.248     2.819
     7   1 H        0.925    -0.009     3.217     2.805

Wiberg/Mayer (AO) data.
largest (>0.10) Wiberg bond orders for each atom

     #   Z sym  total        # sym  WBO       # sym  WBO       # sym  WBO
 ---------------------------------------------------------------------------
     1   6 C    3.969 --     5 H    0.991     7 H    0.991     6 H    0.984
                             2 C    0.884
     2   6 C    3.945 --     3 O    1.528     4 O    1.528     1 C    0.884
     3   8 O    1.832 --     2 C    1.528     4 O    0.230
     4   8 O    1.832 --     2 C    1.528     3 O    0.230
     5   1 H    1.000 --     1 C    0.991
     6   1 H    1.000 --     1 C    0.984
     7   1 H    1.000 --     1 C    0.991
 ---------------------------------------------------------------------------

molecular dipole:
                 x           y           z       tot (Debye)
 q only:       -0.990      -0.130      -0.017
   full:       -1.331      -0.187      -0.042       3.417

           -------------------------------------------------
          | TOTAL ENERGY              -14.166166055550 Eh   |
          | GRADIENT NORM               0.000360873339 Eh/α |
          | HOMO-LUMO GAP               5.337541177316 eV   |
           -------------------------------------------------

 * finished run on 2022/11/03 at 12:28:52.423
