   * xtb version 6.5.1 (b24c23e) compiled by 'conda@728c89f4b128' on 2022-07-12
          program call               : /home/chase/psi4conda/envs/xtbenv/bin/xtb --gfn 2 --chrg -1 --uhf 0 acet-opt-1-2-032_preQMOPTprefit_xyzformat.xyz --opt --input xtb-opt-1-2-032_constr.txt

   ID    Z sym.   atoms
    1    6 C      1, 2
    2    8 O      3, 4
    3    1 H      5-7
constraining angle 6 1 2 3 to   31.9996084°, actual value:   31.9996084°

          :  Hamiltonian                  GFN2-xTB          :
 * total energy  :   -14.1646370 Eh     change       -0.1620037E-11 Eh
 * total energy  :   -14.1660398 Eh     change       -0.1402799E-02 Eh
 * total energy  :   -14.1660834 Eh     change       -0.4366154E-04 Eh
 * total energy  :   -14.1661574 Eh     change       -0.7397517E-04 Eh
 * total energy  :   -14.1661646 Eh     change       -0.7167114E-05 Eh
 * total energy  :   -14.1661658 Eh     change       -0.1197378E-05 Eh
 * total energy  :   -14.1661661 Eh     change       -0.2947233E-06 Eh
   *** GEOMETRY OPTIMIZATION CONVERGED AFTER 7 ITERATIONS ***

 final structure:
================
7
 xtb: 6.5.1 (b24c23e)
C           -1.43202283723852       -0.22480192966645       -0.05504050873232
C            0.13542778459716        0.00826496091330       -0.00261367153324
O            0.59955458886690        0.72175177914986       -0.90347292103584
O            0.72671796785576       -0.53787476105931        0.93975876494340
H           -1.92175213882745        0.59144407921565        0.47681129131071
H           -1.77704704932066       -0.22645332401739       -1.08799215238367
H           -1.68996131593318       -1.16564681453566        0.42885819743095

          :  Hamiltonian                  GFN2-xTB          :
         :: total energy             -14.166166081980 Eh    ::
         :: gradient norm              0.000785139150 Eh/a0 ::
         :: HOMO-LUMO gap              5.338192412650 eV    ::
         :: SCC energy               -14.284070701839 Eh    ::
         :: -> dispersion             -0.003141509806 Eh    ::
         :: repulsion energy           0.117904317405 Eh    ::

    * Orbital Energies and Occupations

         #    Occupation            Energy/Eh            Energy/eV
      -------------------------------------------------------------
         1        2.0000           -0.4589604             -12.4889
         2        2.0000           -0.4457906             -12.1306
         3        2.0000           -0.4137555             -11.2589
         4        2.0000           -0.3488996              -9.4940
         5        2.0000           -0.3180789              -8.6554
         6        2.0000           -0.3059923              -8.3265
         7        2.0000           -0.3057911              -8.3210
         8        2.0000           -0.2749258              -7.4811
         9        2.0000           -0.2672020              -7.2709
        10        2.0000           -0.1846910              -5.0257
        11        2.0000           -0.1694065              -4.6098
        12        2.0000           -0.1544116              -4.2018 (HOMO)
        13                          0.0417633               1.1364 (LUMO)
        14                          0.2945187               8.0143
        15                          0.3417300               9.2989
        16                          0.3836587              10.4399
        17                          0.3915906              10.6557
        18                          0.6334796              17.2379
        19                          0.8804509              23.9583
      -------------------------------------------------------------
                  HL-Gap            0.1961750 Eh            5.3382 eV

     #   Z          covCN         q      C6AA      α(0)
     1   6 C        3.742    -0.126    23.006     6.843
     2   6 C        2.678     0.368    20.767     7.457
     3   8 O        0.856    -0.606    26.278     6.873
     4   8 O        0.856    -0.606    26.271     6.872
     5   1 H        0.924    -0.011     3.249     2.819
     6   1 H        0.925    -0.009     3.219     2.806
     7   1 H        0.925    -0.009     3.216     2.805

Wiberg/Mayer (AO) data.
largest (>0.10) Wiberg bond orders for each atom

     #   Z sym  total        # sym  WBO       # sym  WBO       # sym  WBO
 ---------------------------------------------------------------------------
     1   6 C    3.969 --     7 H    0.992     6 H    0.991     5 H    0.984
                             2 C    0.884
     2   6 C    3.945 --     4 O    1.529     3 O    1.528     1 C    0.884
     3   8 O    1.832 --     2 C    1.528     4 O    0.230
     4   8 O    1.833 --     2 C    1.529     3 O    0.230
     5   1 H    1.000 --     1 C    0.984
     6   1 H    1.000 --     1 C    0.991
     7   1 H    1.000 --     1 C    0.992
 ---------------------------------------------------------------------------

molecular dipole:
                 x           y           z       tot (Debye)
 q only:       -0.986      -0.140      -0.028
   full:       -1.330      -0.177      -0.032       3.412

           -------------------------------------------------
          | TOTAL ENERGY              -14.166166081980 Eh   |
          | GRADIENT NORM               0.000785139150 Eh/α |
          | HOMO-LUMO GAP               5.338192412650 eV   |
           -------------------------------------------------

 * finished run on 2022/11/03 at 12:29:09.973
