   * xtb version 6.5.1 (b24c23e) compiled by 'conda@728c89f4b128' on 2022-07-12
          program call               : /home/chase/psi4conda/envs/xtbenv/bin/xtb --gfn 2 --chrg -1 --uhf 0 acet-opt-1-2-332_preQMOPTprefit_xyzformat.xyz --opt --input xtb-opt-1-2-332_constr.txt

   ID    Z sym.   atoms
    1    6 C      1, 2
    2    8 O      3, 4
    3    1 H      5-7
constraining angle 6 1 2 3 to  331.9992327°, actual value:  -28.0007673°

          :  Hamiltonian                  GFN2-xTB          :
 * total energy  :   -14.1646364 Eh     change       -0.1422862E-11 Eh
 * total energy  :   -14.1660406 Eh     change       -0.1404284E-02 Eh
 * total energy  :   -14.1660855 Eh     change       -0.4488094E-04 Eh
 * total energy  :   -14.1661572 Eh     change       -0.7172130E-04 Eh
 * total energy  :   -14.1661647 Eh     change       -0.7474327E-05 Eh
 * total energy  :   -14.1661659 Eh     change       -0.1193064E-05 Eh
   *** GEOMETRY OPTIMIZATION CONVERGED AFTER 6 ITERATIONS ***

 final structure:
================
7
 xtb: 6.5.1 (b24c23e)
C           -1.43428024283847       -0.20702210783792       -0.05094628490073
C            0.13340947867679        0.01678600207777       -0.00032535355327
O            0.69750773152706        0.10663055897635       -1.10051192577159
O            0.63026957099720        0.06692662866435        1.13428296709619
H           -1.90623627041511        0.23682042279154        0.82464621148863
H           -1.84797179294441        0.22607244377112       -0.96068242671240
H           -1.63177948500305       -1.27953094844320       -0.05015419764683

          :  Hamiltonian                  GFN2-xTB          :
         :: total energy             -14.166165906046 Eh    ::
         :: gradient norm              0.000834391985 Eh/a0 ::
         :: HOMO-LUMO gap              5.336483759290 eV    ::
         :: SCC energy               -14.283943577650 Eh    ::
         :: -> dispersion             -0.003141287868 Eh    ::
         :: repulsion energy           0.117777380543 Eh    ::

    * Orbital Energies and Occupations

         #    Occupation            Energy/Eh            Energy/eV
      -------------------------------------------------------------
         1        2.0000           -0.4588648             -12.4863
         2        2.0000           -0.4456706             -12.1273
         3        2.0000           -0.4138910             -11.2625
         4        2.0000           -0.3488847              -9.4936
         5        2.0000           -0.3181326              -8.6568
         6        2.0000           -0.3059556              -8.3255
         7        2.0000           -0.3058763              -8.3233
         8        2.0000           -0.2748491              -7.4790
         9        2.0000           -0.2671346              -7.2691
        10        2.0000           -0.1845752              -5.0225
        11        2.0000           -0.1692730              -4.6062
        12        2.0000           -0.1544549              -4.2029 (HOMO)
        13                          0.0416572               1.1336 (LUMO)
        14                          0.2953755               8.0376
        15                          0.3415629               9.2944
        16                          0.3831176              10.4252
        17                          0.3912369              10.6461
        18                          0.6332450              17.2315
        19                          0.8792578              23.9258
      -------------------------------------------------------------
                  HL-Gap            0.1961122 Eh            5.3365 eV

     #   Z          covCN         q      C6AA      α(0)
     1   6 C        3.742    -0.126    22.999     6.842
     2   6 C        2.678     0.367    20.769     7.458
     3   8 O        0.856    -0.606    26.279     6.873
     4   8 O        0.856    -0.607    26.282     6.873
     5   1 H        0.925    -0.009     3.216     2.805
     6   1 H        0.925    -0.009     3.215     2.804
     7   1 H        0.924    -0.011     3.248     2.818

Wiberg/Mayer (AO) data.
largest (>0.10) Wiberg bond orders for each atom

     #   Z sym  total        # sym  WBO       # sym  WBO       # sym  WBO
 ---------------------------------------------------------------------------
     1   6 C    3.969 --     6 H    0.991     5 H    0.991     7 H    0.984
                             2 C    0.885
     2   6 C    3.945 --     3 O    1.528     4 O    1.528     1 C    0.885
     3   8 O    1.832 --     2 C    1.528     4 O    0.230
     4   8 O    1.832 --     2 C    1.528     3 O    0.230
     5   1 H    1.000 --     1 C    0.991
     6   1 H    1.000 --     1 C    0.991
     7   1 H    1.000 --     1 C    0.984
 ---------------------------------------------------------------------------

molecular dipole:
                 x           y           z       tot (Debye)
 q only:       -0.992      -0.120      -0.024
   full:       -1.332      -0.185      -0.034       3.420

           -------------------------------------------------
          | TOTAL ENERGY              -14.166165906046 Eh   |
          | GRADIENT NORM               0.000834391985 Eh/α |
          | HOMO-LUMO GAP               5.336483759290 eV   |
           -------------------------------------------------

 * finished run on 2022/11/03 at 12:29:31.294
