   * xtb version 6.5.1 (b24c23e) compiled by 'conda@728c89f4b128' on 2022-07-12
          program call               : /home/chase/psi4conda/envs/xtbenv/bin/xtb --gfn 2 --chrg -1 --uhf 0 acet-opt-1-2-212_preQMOPTprefit_xyzformat.xyz --opt --input xtb-opt-1-2-212_constr.txt

   ID    Z sym.   atoms
    1    6 C      1, 2
    2    8 O      3, 4
    3    1 H      5-7
constraining angle 6 1 2 3 to  212.0015204°, actual value: -147.9984796°

          :  Hamiltonian                  GFN2-xTB          :
 * total energy  :   -14.1646430 Eh     change       -0.1564970E-11 Eh
 * total energy  :   -14.1660494 Eh     change       -0.1406444E-02 Eh
 * total energy  :   -14.1661554 Eh     change       -0.1059744E-03 Eh
 * total energy  :   -14.1661638 Eh     change       -0.8385647E-05 Eh
 * total energy  :   -14.1661656 Eh     change       -0.1819908E-05 Eh
   *** GEOMETRY OPTIMIZATION CONVERGED AFTER 5 ITERATIONS ***

 final structure:
================
7
 xtb: 6.5.1 (b24c23e)
C           -1.43359763576888       -0.21978017522337       -0.03978654971197
C            0.13551807695010        0.00652176809122       -0.00041775192406
O            0.53076209130062        0.88662139553712        0.77787698900519
O            0.79822648403681       -0.71436522315057       -0.76050043022306
H           -1.85132718269711        0.39297283812725       -0.83922317376925
H           -1.65648141320477       -1.26533548877551       -0.24771377639095
H           -1.88218243061677        0.08004789539386        0.90607269301410

          :  Hamiltonian                  GFN2-xTB          :
         :: total energy             -14.166165575579 Eh    ::
         :: gradient norm              0.000666883653 Eh/a0 ::
         :: HOMO-LUMO gap              5.335984569761 eV    ::
         :: SCC energy               -14.283942538252 Eh    ::
         :: -> dispersion             -0.003141213262 Eh    ::
         :: repulsion energy           0.117776689350 Eh    ::

    * Orbital Energies and Occupations

         #    Occupation            Energy/Eh            Energy/eV
      -------------------------------------------------------------
         1        2.0000           -0.4589179             -12.4878
         2        2.0000           -0.4457499             -12.1295
         3        2.0000           -0.4137534             -11.2588
         4        2.0000           -0.3488780              -9.4935
         5        2.0000           -0.3180548              -8.6547
         6        2.0000           -0.3059734              -8.3260
         7        2.0000           -0.3057988              -8.3212
         8        2.0000           -0.2749065              -7.4806
         9        2.0000           -0.2672272              -7.2716
        10        2.0000           -0.1846764              -5.0253
        11        2.0000           -0.1693967              -4.6095
        12        2.0000           -0.1544512              -4.2028 (HOMO)
        13                          0.0416426               1.1332 (LUMO)
        14                          0.2941438               8.0041
        15                          0.3414812               9.2922
        16                          0.3838392              10.4448
        17                          0.3914552              10.6520
        18                          0.6329979              17.2247
        19                          0.8794913              23.9322
      -------------------------------------------------------------
                  HL-Gap            0.1960938 Eh            5.3360 eV

     #   Z          covCN         q      C6AA      α(0)
     1   6 C        3.742    -0.127    23.007     6.843
     2   6 C        2.678     0.367    20.770     7.458
     3   8 O        0.856    -0.606    26.271     6.872
     4   8 O        0.856    -0.606    26.279     6.873
     5   1 H        0.924    -0.011     3.249     2.819
     6   1 H        0.925    -0.009     3.217     2.805
     7   1 H        0.925    -0.009     3.215     2.804

Wiberg/Mayer (AO) data.
largest (>0.10) Wiberg bond orders for each atom

     #   Z sym  total        # sym  WBO       # sym  WBO       # sym  WBO
 ---------------------------------------------------------------------------
     1   6 C    3.969 --     7 H    0.992     6 H    0.991     5 H    0.984
                             2 C    0.884
     2   6 C    3.945 --     3 O    1.529     4 O    1.528     1 C    0.884
     3   8 O    1.833 --     2 C    1.529     4 O    0.230
     4   8 O    1.832 --     2 C    1.528     3 O    0.230
     5   1 H    1.000 --     1 C    0.984
     6   1 H    1.000 --     1 C    0.991
     7   1 H    1.000 --     1 C    0.992
 ---------------------------------------------------------------------------

molecular dipole:
                 x           y           z       tot (Debye)
 q only:       -0.990      -0.128      -0.004
   full:       -1.333      -0.168      -0.026       3.415

           -------------------------------------------------
          | TOTAL ENERGY              -14.166165575579 Eh   |
          | GRADIENT NORM               0.000666883653 Eh/α |
          | HOMO-LUMO GAP               5.335984569761 eV   |
           -------------------------------------------------

 * finished run on 2022/11/03 at 12:28:29.493
