   * xtb version 6.5.1 (b24c23e) compiled by 'conda@728c89f4b128' on 2022-07-12
          program call               : /home/chase/psi4conda/envs/xtbenv/bin/xtb --gfn 2 --chrg -1 --uhf 0 acet-opt-1-2-152_preQMOPTprefit_xyzformat.xyz --opt --input xtb-opt-1-2-152_constr.txt

   ID    Z sym.   atoms
    1    6 C      1, 2
    2    8 O      3, 4
    3    1 H      5-7
constraining angle 6 1 2 3 to  151.9991675°, actual value:  151.9991675°

          :  Hamiltonian                  GFN2-xTB          :
 * total energy  :   -14.1646344 Eh     change       -0.1536549E-11 Eh
 * total energy  :   -14.1660491 Eh     change       -0.1414784E-02 Eh
 * total energy  :   -14.1661550 Eh     change       -0.1058747E-03 Eh
 * total energy  :   -14.1661616 Eh     change       -0.6570714E-05 Eh
 * total energy  :   -14.1661607 Eh     change        0.8896514E-06 Eh
 * total energy  :   -14.1661657 Eh     change       -0.4965656E-05 Eh
   *** GEOMETRY OPTIMIZATION CONVERGED AFTER 6 ITERATIONS ***

 final structure:
================
7
 xtb: 6.5.1 (b24c23e)
C           -1.43320090066517       -0.21671545591751       -0.06294924349011
C            0.13420925277212        0.01521941222942       -0.00061764036833
O            0.49417972800183        1.18285187684480        0.20841546193498
O            0.83174377061979       -0.99721429946288       -0.15823993095942
H           -1.93167119934682        0.67782752675798       -0.43344783117940
H           -1.66274391276845       -1.06814043330827       -0.70204422721734
H           -1.79159972861330       -0.42714562714354        0.94519140127961

          :  Hamiltonian                  GFN2-xTB          :
         :: total energy             -14.166165655392 Eh    ::
         :: gradient norm              0.000800749610 Eh/a0 ::
         :: HOMO-LUMO gap              5.336418485229 eV    ::
         :: SCC energy               -14.283948016964 Eh    ::
         :: -> dispersion             -0.003141232019 Eh    ::
         :: repulsion energy           0.117782083090 Eh    ::

    * Orbital Energies and Occupations

         #    Occupation            Energy/Eh            Energy/eV
      -------------------------------------------------------------
         1        2.0000           -0.4589158             -12.4877
         2        2.0000           -0.4457450             -12.1293
         3        2.0000           -0.4137649             -11.2591
         4        2.0000           -0.3488788              -9.4935
         5        2.0000           -0.3180615              -8.6549
         6        2.0000           -0.3059300              -8.3248
         7        2.0000           -0.3058493              -8.3226
         8        2.0000           -0.2748984              -7.4804
         9        2.0000           -0.2672215              -7.2715
        10        2.0000           -0.1846672              -5.0251
        11        2.0000           -0.1693841              -4.6092
        12        2.0000           -0.1544495              -4.2028 (HOMO)
        13                          0.0416602               1.1336 (LUMO)
        14                          0.2942651               8.0074
        15                          0.3414787               9.2921
        16                          0.3837881              10.4434
        17                          0.3913860              10.6502
        18                          0.6330747              17.2268
        19                          0.8795388              23.9335
      -------------------------------------------------------------
                  HL-Gap            0.1961098 Eh            5.3364 eV

     #   Z          covCN         q      C6AA      α(0)
     1   6 C        3.742    -0.127    23.006     6.843
     2   6 C        2.678     0.367    20.770     7.458
     3   8 O        0.856    -0.606    26.277     6.873
     4   8 O        0.856    -0.606    26.273     6.872
     5   1 H        0.925    -0.009     3.216     2.804
     6   1 H        0.925    -0.009     3.216     2.804
     7   1 H        0.924    -0.011     3.250     2.819

Wiberg/Mayer (AO) data.
largest (>0.10) Wiberg bond orders for each atom

     #   Z sym  total        # sym  WBO       # sym  WBO       # sym  WBO
 ---------------------------------------------------------------------------
     1   6 C    3.969 --     6 H    0.991     5 H    0.991     7 H    0.984
                             2 C    0.884
     2   6 C    3.945 --     4 O    1.528     3 O    1.528     1 C    0.884
     3   8 O    1.832 --     2 C    1.528     4 O    0.230
     4   8 O    1.832 --     2 C    1.528     3 O    0.230
     5   1 H    1.000 --     1 C    0.991
     6   1 H    1.000 --     1 C    0.991
     7   1 H    1.000 --     1 C    0.984
 ---------------------------------------------------------------------------

molecular dipole:
                 x           y           z       tot (Debye)
 q only:       -0.987      -0.136      -0.043
   full:       -1.329      -0.188      -0.040       3.414

           -------------------------------------------------
          | TOTAL ENERGY              -14.166165655392 Eh   |
          | GRADIENT NORM               0.000800749610 Eh/α |
          | HOMO-LUMO GAP               5.336418485229 eV   |
           -------------------------------------------------

 * finished run on 2022/11/03 at 12:28:23.212
