   * xtb version 6.5.1 (b24c23e) compiled by 'conda@728c89f4b128' on 2022-07-12
          program call               : /home/chase/psi4conda/envs/xtbenv/bin/xtb --gfn 2 --chrg -1 --uhf 0 acet-opt-1-2-302_preQMOPTprefit_xyzformat.xyz --opt --input xtb-opt-1-2-302_constr.txt

   ID    Z sym.   atoms
    1    6 C      1, 2
    2    8 O      3, 4
    3    1 H      5-7
constraining angle 6 1 2 3 to  302.0014196°, actual value:  -57.9985804°

          :  Hamiltonian                  GFN2-xTB          :
 * total energy  :   -14.1646418 Eh     change       -0.1259437E-11 Eh
 * total energy  :   -14.1660375 Eh     change       -0.1395771E-02 Eh
 * total energy  :   -14.1661241 Eh     change       -0.8656444E-04 Eh
 * total energy  :   -14.1661371 Eh     change       -0.1305717E-04 Eh
 * total energy  :   -14.1661544 Eh     change       -0.1728794E-04 Eh
 * total energy  :   -14.1661555 Eh     change       -0.1021976E-05 Eh
   *** GEOMETRY OPTIMIZATION CONVERGED AFTER 6 ITERATIONS ***

 final structure:
================
7
 xtb: 6.5.1 (b24c23e)
C           -1.43481519318881       -0.20268763316339       -0.05716456025263
C            0.13706937664750       -0.00660115400637       -0.00354476773173
O            0.62964402692197        0.01498027166313        1.13388581307235
O            0.70582768180256        0.10383571175425       -1.09918448378811
H           -1.77984951785652       -0.23076888071941       -1.08974717858377
H           -1.69951745767249       -1.13344496264189        0.44409245698074
H           -1.91743790665421        0.62136763711369        0.46796973030314

          :  Hamiltonian                  GFN2-xTB          :
         :: total energy             -14.166155454487 Eh    ::
         :: gradient norm              0.000704844983 Eh/a0 ::
         :: HOMO-LUMO gap              5.334375154910 eV    ::
         :: SCC energy               -14.283971326401 Eh    ::
         :: -> dispersion             -0.003141283469 Eh    ::
         :: repulsion energy           0.117815571230 Eh    ::

    * Orbital Energies and Occupations

         #    Occupation            Energy/Eh            Energy/eV
      -------------------------------------------------------------
         1        2.0000           -0.4589109             -12.4876
         2        2.0000           -0.4457206             -12.1287
         3        2.0000           -0.4138180             -11.2606
         4        2.0000           -0.3488950              -9.4939
         5        2.0000           -0.3181028              -8.6560
         6        2.0000           -0.3064021              -8.3376
         7        2.0000           -0.3053777              -8.3097
         8        2.0000           -0.2749604              -7.4821
         9        2.0000           -0.2671133              -7.2685
        10        2.0000           -0.1846212              -5.0238
        11        2.0000           -0.1693447              -4.6081
        12        2.0000           -0.1544524              -4.2029 (HOMO)
        13                          0.0415823               1.1315 (LUMO)
        14                          0.2949042               8.0248
        15                          0.3416774               9.2975
        16                          0.3828251              10.4172
        17                          0.3921558              10.6711
        18                          0.6333122              17.2333
        19                          0.8794466              23.9310
      -------------------------------------------------------------
                  HL-Gap            0.1960347 Eh            5.3344 eV

     #   Z          covCN         q      C6AA      α(0)
     1   6 C        3.742    -0.126    23.003     6.842
     2   6 C        2.678     0.367    20.769     7.458
     3   8 O        0.856    -0.607    26.302     6.876
     4   8 O        0.856    -0.605    26.252     6.869
     5   1 H        0.925    -0.009     3.211     2.802
     6   1 H        0.925    -0.010     3.234     2.812
     7   1 H        0.925    -0.010     3.236     2.813

Wiberg/Mayer (AO) data.
largest (>0.10) Wiberg bond orders for each atom

     #   Z sym  total        # sym  WBO       # sym  WBO       # sym  WBO
 ---------------------------------------------------------------------------
     1   6 C    3.969 --     5 H    0.993     6 H    0.987     7 H    0.986
                             2 C    0.884
     2   6 C    3.945 --     4 O    1.529     3 O    1.527     1 C    0.884
     3   8 O    1.830 --     2 C    1.527     4 O    0.230
     4   8 O    1.834 --     2 C    1.529     3 O    0.230
     5   1 H    1.000 --     1 C    0.993
     6   1 H    1.000 --     1 C    0.987
     7   1 H    1.000 --     1 C    0.986
 ---------------------------------------------------------------------------

molecular dipole:
                 x           y           z       tot (Debye)
 q only:       -0.996      -0.079      -0.032
   full:       -1.340      -0.121      -0.030       3.420

           -------------------------------------------------
          | TOTAL ENERGY              -14.166155454487 Eh   |
          | GRADIENT NORM               0.000704844983 Eh/α |
          | HOMO-LUMO GAP               5.334375154910 eV   |
           -------------------------------------------------

 * finished run on 2022/11/03 at 12:28:45.235
