   * xtb version 6.5.1 (b24c23e) compiled by 'conda@728c89f4b128' on 2022-07-12
          program call               : /home/chase/psi4conda/envs/xtbenv/bin/xtb --gfn 2 --chrg -1 --uhf 0 acet-opt-1-2-242_preQMOPTprefit_xyzformat.xyz --opt --input xtb-opt-1-2-242_constr.txt

   ID    Z sym.   atoms
    1    6 C      1, 2
    2    8 O      3, 4
    3    1 H      5-7
constraining angle 6 1 2 3 to  242.0003642°, actual value: -117.9996358°

          :  Hamiltonian                  GFN2-xTB          :
 * total energy  :   -14.1646408 Eh     change       -0.1104894E-11 Eh
 * total energy  :   -14.1660390 Eh     change       -0.1398160E-02 Eh
 * total energy  :   -14.1661263 Eh     change       -0.8736065E-04 Eh
 * total energy  :   -14.1661316 Eh     change       -0.5288901E-05 Eh
 * total energy  :   -14.1661546 Eh     change       -0.2294224E-04 Eh
 * total energy  :   -14.1661557 Eh     change       -0.1102462E-05 Eh
   *** GEOMETRY OPTIMIZATION CONVERGED AFTER 6 ITERATIONS ***

 final structure:
================
7
 xtb: 6.5.1 (b24c23e)
C           -1.43504995429675       -0.20420750985989       -0.04417837639754
C            0.13557888636837        0.00372710056180        0.00068709160054
O            0.57041091017576        0.62921732124783        0.97833124401167
O            0.76201708830438       -0.48486231305213       -0.95099793276733
H           -1.82712251560208        0.20178945139001       -0.97636615201287
H           -1.65592474134289       -1.27103030169658       -0.01265145992713
H           -1.90899066360679        0.29204826140897        0.80148257549266

          :  Hamiltonian                  GFN2-xTB          :
         :: total energy             -14.166155652701 Eh    ::
         :: gradient norm              0.000386881170 Eh/a0 ::
         :: HOMO-LUMO gap              5.334491927114 eV    ::
         :: SCC energy               -14.283972181943 Eh    ::
         :: -> dispersion             -0.003141274482 Eh    ::
         :: repulsion energy           0.117816258274 Eh    ::

    * Orbital Energies and Occupations

         #    Occupation            Energy/Eh            Energy/eV
      -------------------------------------------------------------
         1        2.0000           -0.4589096             -12.4876
         2        2.0000           -0.4457185             -12.1286
         3        2.0000           -0.4138201             -11.2606
         4        2.0000           -0.3488941              -9.4939
         5        2.0000           -0.3181003              -8.6559
         6        2.0000           -0.3064004              -8.3376
         7        2.0000           -0.3053843              -8.3099
         8        2.0000           -0.2749556              -7.4819
         9        2.0000           -0.2671152              -7.2686
        10        2.0000           -0.1846187              -5.0237
        11        2.0000           -0.1693403              -4.6080
        12        2.0000           -0.1544539              -4.2029 (HOMO)
        13                          0.0415851               1.1316 (LUMO)
        14                          0.2949077               8.0248
        15                          0.3416750               9.2975
        16                          0.3828716              10.4185
        17                          0.3921045              10.6697
        18                          0.6333369              17.2340
        19                          0.8794311              23.9305
      -------------------------------------------------------------
                  HL-Gap            0.1960390 Eh            5.3345 eV

     #   Z          covCN         q      C6AA      α(0)
     1   6 C        3.742    -0.126    23.003     6.842
     2   6 C        2.678     0.367    20.769     7.458
     3   8 O        0.856    -0.605    26.252     6.869
     4   8 O        0.856    -0.607    26.302     6.876
     5   1 H        0.925    -0.010     3.233     2.812
     6   1 H        0.925    -0.010     3.237     2.814
     7   1 H        0.925    -0.009     3.211     2.802

Wiberg/Mayer (AO) data.
largest (>0.10) Wiberg bond orders for each atom

     #   Z sym  total        # sym  WBO       # sym  WBO       # sym  WBO
 ---------------------------------------------------------------------------
     1   6 C    3.969 --     7 H    0.993     5 H    0.987     6 H    0.986
                             2 C    0.884
     2   6 C    3.945 --     3 O    1.529     4 O    1.527     1 C    0.884
     3   8 O    1.834 --     2 C    1.529     4 O    0.230
     4   8 O    1.830 --     2 C    1.527     3 O    0.230
     5   1 H    1.000 --     1 C    0.987
     6   1 H    1.000 --     1 C    0.986
     7   1 H    1.000 --     1 C    0.993
 ---------------------------------------------------------------------------

molecular dipole:
                 x           y           z       tot (Debye)
 q only:       -0.995      -0.096      -0.011
   full:       -1.336      -0.150      -0.031       3.418

           -------------------------------------------------
          | TOTAL ENERGY              -14.166155652701 Eh   |
          | GRADIENT NORM               0.000386881170 Eh/α |
          | HOMO-LUMO GAP               5.334491927114 eV   |
           -------------------------------------------------

 * finished run on 2022/11/03 at 12:28:33.815
