   * xtb version 6.5.1 (b24c23e) compiled by 'conda@728c89f4b128' on 2022-07-12
          program call               : /home/chase/psi4conda/envs/xtbenv/bin/xtb --gfn 2 --chrg -1 --uhf 0 acet-opt-1-2-122_preQMOPTprefit_xyzformat.xyz --opt --input xtb-opt-1-2-122_constr.txt

   ID    Z sym.   atoms
    1    6 C      1, 2
    2    8 O      3, 4
    3    1 H      5-7
constraining angle 6 1 2 3 to  121.9999342°, actual value:  121.9999342°

          :  Hamiltonian                  GFN2-xTB          :
 * total energy  :   -14.1646487 Eh     change       -0.6137668E-10 Eh
 * total energy  :   -14.1660390 Eh     change       -0.1390267E-02 Eh
 * total energy  :   -14.1661286 Eh     change       -0.8955044E-04 Eh
 * total energy  :   -14.1661312 Eh     change       -0.2624468E-05 Eh
 * total energy  :   -14.1661544 Eh     change       -0.2322554E-04 Eh
 * total energy  :   -14.1661555 Eh     change       -0.1082531E-05 Eh
   *** GEOMETRY OPTIMIZATION CONVERGED AFTER 6 ITERATIONS ***

 final structure:
================
7
 xtb: 6.5.1 (b24c23e)
C           -1.43349526885937       -0.21298656835843       -0.05626726766989
C            0.13313810168379        0.01957133921597        0.00479893695443
O            0.50970281270105        1.19560596053043       -0.10131882858047
O            0.81525589961529       -1.00476070313952        0.15421716682946
H           -1.95293317200573        0.73209233316291       -0.20808752038943
H           -1.66518119411563       -0.89516137633141       -0.87393162206956
H           -1.76556918901940       -0.66767698507995        0.87689813492545

          :  Hamiltonian                  GFN2-xTB          :
         :: total energy             -14.166155495277 Eh    ::
         :: gradient norm              0.000392024629 Eh/a0 ::
         :: HOMO-LUMO gap              5.334344942048 eV    ::
         :: SCC energy               -14.283967401361 Eh    ::
         :: -> dispersion             -0.003141270971 Eh    ::
         :: repulsion energy           0.117811635195 Eh    ::

    * Orbital Energies and Occupations

         #    Occupation            Energy/Eh            Energy/eV
      -------------------------------------------------------------
         1        2.0000           -0.4589091             -12.4876
         2        2.0000           -0.4457183             -12.1286
         3        2.0000           -0.4138190             -11.2606
         4        2.0000           -0.3488941              -9.4939
         5        2.0000           -0.3180996              -8.6559
         6        2.0000           -0.3064039              -8.3377
         7        2.0000           -0.3053795              -8.3098
         8        2.0000           -0.2749568              -7.4820
         9        2.0000           -0.2671149              -7.2686
        10        2.0000           -0.1846194              -5.0238
        11        2.0000           -0.1693422              -4.6080
        12        2.0000           -0.1544546              -4.2029 (HOMO)
        13                          0.0415790               1.1314 (LUMO)
        14                          0.2948972               8.0246
        15                          0.3416691               9.2973
        16                          0.3828571              10.4181
        17                          0.3921156              10.6700
        18                          0.6333112              17.2333
        19                          0.8794100              23.9300
      -------------------------------------------------------------
                  HL-Gap            0.1960336 Eh            5.3343 eV

     #   Z          covCN         q      C6AA      α(0)
     1   6 C        3.742    -0.126    23.003     6.842
     2   6 C        2.678     0.367    20.769     7.458
     3   8 O        0.856    -0.605    26.252     6.869
     4   8 O        0.856    -0.607    26.302     6.876
     5   1 H        0.925    -0.009     3.211     2.802
     6   1 H        0.925    -0.010     3.234     2.812
     7   1 H        0.925    -0.010     3.236     2.813

Wiberg/Mayer (AO) data.
largest (>0.10) Wiberg bond orders for each atom

     #   Z sym  total        # sym  WBO       # sym  WBO       # sym  WBO
 ---------------------------------------------------------------------------
     1   6 C    3.969 --     5 H    0.993     6 H    0.987     7 H    0.986
                             2 C    0.884
     2   6 C    3.945 --     3 O    1.529     4 O    1.527     1 C    0.884
     3   8 O    1.834 --     2 C    1.529     4 O    0.230
     4   8 O    1.830 --     2 C    1.527     3 O    0.230
     5   1 H    1.000 --     1 C    0.993
     6   1 H    1.000 --     1 C    0.987
     7   1 H    1.000 --     1 C    0.986
 ---------------------------------------------------------------------------

molecular dipole:
                 x           y           z       tot (Debye)
 q only:       -0.988      -0.133      -0.041
   full:       -1.329      -0.197      -0.052       3.416

           -------------------------------------------------
          | TOTAL ENERGY              -14.166155495277 Eh   |
          | GRADIENT NORM               0.000392024629 Eh/α |
          | HOMO-LUMO GAP               5.334344942048 eV   |
           -------------------------------------------------

 * finished run on 2022/11/03 at 12:28:20.887
