   * xtb version 6.5.1 (b24c23e) compiled by 'conda@728c89f4b128' on 2022-07-12
          program call               : /home/chase/psi4conda/envs/xtbenv/bin/xtb --gfn 2 --chrg -1 --uhf 0 acet-opt-1-2-002_preQMOPTprefit_xyzformat.xyz --opt --input xtb-opt-1-2-002_constr.txt

   ID    Z sym.   atoms
    1    6 C      1, 2
    2    8 O      3, 4
    3    1 H      5-7
constraining angle 6 1 2 3 to    1.9992783°, actual value:    1.9992783°

          :  Hamiltonian                  GFN2-xTB          :
 * total energy  :   -14.1646531 Eh     change       -0.1348255E-11 Eh
 * total energy  :   -14.1660440 Eh     change       -0.1390919E-02 Eh
 * total energy  :   -14.1661443 Eh     change       -0.1003309E-03 Eh
 * total energy  :   -14.1661508 Eh     change       -0.6517928E-05 Eh
 * total energy  :   -14.1661547 Eh     change       -0.3859058E-05 Eh
 * total energy  :   -14.1661556 Eh     change       -0.8884026E-06 Eh
   *** GEOMETRY OPTIMIZATION CONVERGED AFTER 6 ITERATIONS ***

 final structure:
================
7
 xtb: 6.5.1 (b24c23e)
C           -1.43298682438397       -0.21491856095048       -0.05692463854383
C            0.13461946625012        0.01196628904639       -0.00379010806034
O            0.65606234427037        0.42873989201916       -1.04805620086284
O            0.67130887420601       -0.25154350183093        1.08215885801455
H           -1.91445136675355        0.43476223153081        0.67377976678868
H           -1.81615735096774        0.00731255917034       -1.05187578907329
H           -1.65747714262123       -1.24963591898529        0.20101710173706

          :  Hamiltonian                  GFN2-xTB          :
         :: total energy             -14.166155571007 Eh    ::
         :: gradient norm              0.000795575466 Eh/a0 ::
         :: HOMO-LUMO gap              5.334186344667 eV    ::
         :: SCC energy               -14.283985911746 Eh    ::
         :: -> dispersion             -0.003141365910 Eh    ::
         :: repulsion energy           0.117830044833 Eh    ::

    * Orbital Energies and Occupations

         #    Occupation            Energy/Eh            Energy/eV
      -------------------------------------------------------------
         1        2.0000           -0.4589161             -12.4877
         2        2.0000           -0.4457296             -12.1289
         3        2.0000           -0.4138228             -11.2607
         4        2.0000           -0.3489043              -9.4942
         5        2.0000           -0.3181010              -8.6560
         6        2.0000           -0.3064166              -8.3380
         7        2.0000           -0.3053782              -8.3098
         8        2.0000           -0.2749512              -7.4818
         9        2.0000           -0.2671095              -7.2684
        10        2.0000           -0.1846275              -5.0240
        11        2.0000           -0.1693604              -4.6085
        12        2.0000           -0.1544389              -4.2025 (HOMO)
        13                          0.0415889               1.1317 (LUMO)
        14                          0.2950545               8.0288
        15                          0.3417724               9.3001
        16                          0.3827923              10.4163
        17                          0.3920939              10.6694
        18                          0.6332205              17.2308
        19                          0.8796693              23.9370
      -------------------------------------------------------------
                  HL-Gap            0.1960277 Eh            5.3342 eV

     #   Z          covCN         q      C6AA      α(0)
     1   6 C        3.742    -0.126    23.002     6.842
     2   6 C        2.678     0.368    20.769     7.458
     3   8 O        0.856    -0.605    26.253     6.870
     4   8 O        0.856    -0.607    26.302     6.876
     5   1 H        0.925    -0.010     3.237     2.813
     6   1 H        0.925    -0.009     3.211     2.802
     7   1 H        0.925    -0.010     3.234     2.812

Wiberg/Mayer (AO) data.
largest (>0.10) Wiberg bond orders for each atom

     #   Z sym  total        # sym  WBO       # sym  WBO       # sym  WBO
 ---------------------------------------------------------------------------
     1   6 C    3.969 --     6 H    0.993     7 H    0.987     5 H    0.986
                             2 C    0.884
     2   6 C    3.945 --     3 O    1.529     4 O    1.527     1 C    0.884
     3   8 O    1.834 --     2 C    1.529     4 O    0.230
     4   8 O    1.830 --     2 C    1.527     3 O    0.230
     5   1 H    1.000 --     1 C    0.986
     6   1 H    1.000 --     1 C    0.993
     7   1 H    1.000 --     1 C    0.987
 ---------------------------------------------------------------------------

molecular dipole:
                 x           y           z       tot (Debye)
 q only:       -0.989      -0.127      -0.032
   full:       -1.332      -0.179      -0.030       3.416

           -------------------------------------------------
          | TOTAL ENERGY              -14.166155571007 Eh   |
          | GRADIENT NORM               0.000795575466 Eh/α |
          | HOMO-LUMO GAP               5.334186344667 eV   |
           -------------------------------------------------

 * finished run on 2022/11/03 at 12:29:20.058
