   * xtb version 6.5.1 (b24c23e) compiled by 'conda@728c89f4b128' on 2022-07-12
          program call               : /home/chase/psi4conda/envs/xtbenv/bin/xtb --gfn 2 --chrg -1 --uhf 0 acet-opt-1-2-182_preQMOPTprefit_xyzformat.xyz --opt --input xtb-opt-1-2-182_constr.txt

   ID    Z sym.   atoms
    1    6 C      1, 2
    2    8 O      3, 4
    3    1 H      5-7
constraining angle 6 1 2 3 to  181.9989835°, actual value: -178.0010165°

          :  Hamiltonian                  GFN2-xTB          :
 * total energy  :   -14.1646394 Eh     change       -0.1236344E-11 Eh
 * total energy  :   -14.1660435 Eh     change       -0.1404135E-02 Eh
 * total energy  :   -14.1661449 Eh     change       -0.1013585E-03 Eh
 * total energy  :   -14.1661529 Eh     change       -0.7975696E-05 Eh
 * total energy  :   -14.1661477 Eh     change        0.5204522E-05 Eh
 * total energy  :   -14.1661548 Eh     change       -0.7144876E-05 Eh
 * total energy  :   -14.1661555 Eh     change       -0.6921902E-06 Eh
   *** GEOMETRY OPTIMIZATION CONVERGED AFTER 7 ITERATIONS ***

 final structure:
================
7
 xtb: 6.5.1 (b24c23e)
C           -1.43186911102935       -0.22295973209530       -0.05141037881982
C            0.13507071346791        0.00934917648499       -0.00236762871121
O            0.49612027086218        1.07736937091149        0.51276661261853
O            0.83053748274176       -0.89598482774332       -0.48454466698302
H           -1.89236986407006        0.56170992146489       -0.65152877821103
H           -1.65924361480902       -1.19577346321727       -0.48517023931672
H           -1.83732887716343       -0.16702844580549        0.95856308942327

          :  Hamiltonian                  GFN2-xTB          :
         :: total energy             -14.166155500148 Eh    ::
         :: gradient norm              0.000433407201 Eh/a0 ::
         :: HOMO-LUMO gap              5.335311910815 eV    ::
         :: SCC energy               -14.284037826958 Eh    ::
         :: -> dispersion             -0.003141542693 Eh    ::
         :: repulsion energy           0.117882055346 Eh    ::

    * Orbital Energies and Occupations

         #    Occupation            Energy/Eh            Energy/eV
      -------------------------------------------------------------
         1        2.0000           -0.4589468             -12.4886
         2        2.0000           -0.4457642             -12.1299
         3        2.0000           -0.4138016             -11.2601
         4        2.0000           -0.3489148              -9.4945
         5        2.0000           -0.3181013              -8.6560
         6        2.0000           -0.3064196              -8.3381
         7        2.0000           -0.3053794              -8.3098
         8        2.0000           -0.2749592              -7.4820
         9        2.0000           -0.2671113              -7.2685
        10        2.0000           -0.1846501              -5.0246
        11        2.0000           -0.1693861              -4.6092
        12        2.0000           -0.1544126              -4.2018 (HOMO)
        13                          0.0416565               1.1335 (LUMO)
        14                          0.2951351               8.0310
        15                          0.3418083               9.3011
        16                          0.3827697              10.4157
        17                          0.3920526              10.6683
        18                          0.6334168              17.2361
        19                          0.8802747              23.9535
      -------------------------------------------------------------
                  HL-Gap            0.1960691 Eh            5.3353 eV

     #   Z          covCN         q      C6AA      α(0)
     1   6 C        3.742    -0.126    23.002     6.842
     2   6 C        2.678     0.368    20.767     7.457
     3   8 O        0.856    -0.607    26.301     6.876
     4   8 O        0.856    -0.605    26.253     6.870
     5   1 H        0.925    -0.010     3.237     2.814
     6   1 H        0.925    -0.009     3.212     2.803
     7   1 H        0.925    -0.010     3.235     2.813

Wiberg/Mayer (AO) data.
largest (>0.10) Wiberg bond orders for each atom

     #   Z sym  total        # sym  WBO       # sym  WBO       # sym  WBO
 ---------------------------------------------------------------------------
     1   6 C    3.969 --     6 H    0.993     7 H    0.987     5 H    0.986
                             2 C    0.884
     2   6 C    3.945 --     4 O    1.529     3 O    1.527     1 C    0.884
     3   8 O    1.831 --     2 C    1.527     4 O    0.230
     4   8 O    1.834 --     2 C    1.529     3 O    0.230
     5   1 H    1.000 --     1 C    0.986
     6   1 H    1.000 --     1 C    0.993
     7   1 H    1.000 --     1 C    0.987
 ---------------------------------------------------------------------------

molecular dipole:
                 x           y           z       tot (Debye)
 q only:       -0.987      -0.140      -0.021
   full:       -1.331      -0.178      -0.027       3.414

           -------------------------------------------------
          | TOTAL ENERGY              -14.166155500148 Eh   |
          | GRADIENT NORM               0.000433407201 Eh/α |
          | HOMO-LUMO GAP               5.335311910815 eV   |
           -------------------------------------------------

 * finished run on 2022/11/03 at 12:28:26.605
