   * xtb version 6.5.1 (b24c23e) compiled by 'conda@728c89f4b128' on 2022-07-12
          program call               : /home/chase/psi4conda/envs/xtbenv/bin/xtb --gfn 2 --chrg -1 --uhf 0 acet-opt-1-2-272_preQMOPTprefit_xyzformat.xyz --opt --input xtb-opt-1-2-272_constr.txt

   ID    Z sym.   atoms
    1    6 C      1, 2
    2    8 O      3, 4
    3    1 H      5-7
constraining angle 6 1 2 3 to  272.0006285°, actual value:  -87.9993715°

          :  Hamiltonian                  GFN2-xTB          :
 * total energy  :   -14.1646287 Eh     change       -0.1374900E-11 Eh
 * total energy  :   -14.1660509 Eh     change       -0.1422247E-02 Eh
 * total energy  :   -14.1661346 Eh     change       -0.8363921E-04 Eh
 * total energy  :   -14.1661454 Eh     change       -0.1087243E-04 Eh
 * total energy  :   -14.1661650 Eh     change       -0.1960887E-04 Eh
 * total energy  :   -14.1661661 Eh     change       -0.1096510E-05 Eh
   *** GEOMETRY OPTIMIZATION CONVERGED AFTER 6 ITERATIONS ***

 final structure:
================
7
 xtb: 6.5.1 (b24c23e)
C           -1.43594693628721       -0.19444686664420       -0.05363530734152
C            0.13620973954362       -0.00099603551827       -0.00148646349910
O            0.59773482583509        0.33122094645966        1.09992173910289
O            0.73753192499741       -0.21322210308380       -1.06439834731325
H           -1.80569158879079       -0.00829749591715       -1.06098782872533
H           -1.66794532419108       -1.22357716980358        0.22238535700109
H           -1.92097264110703        0.47600073450734        0.65450784077522

          :  Hamiltonian                  GFN2-xTB          :
         :: total energy             -14.166166136164 Eh    ::
         :: gradient norm              0.000370240144 Eh/a0 ::
         :: HOMO-LUMO gap              5.337222351839 eV    ::
         :: SCC energy               -14.283995190901 Eh    ::
         :: -> dispersion             -0.003141346722 Eh    ::
         :: repulsion energy           0.117828783804 Eh    ::

    * Orbital Energies and Occupations

         #    Occupation            Energy/Eh            Energy/eV
      -------------------------------------------------------------
         1        2.0000           -0.4588998             -12.4873
         2        2.0000           -0.4457142             -12.1285
         3        2.0000           -0.4138396             -11.2611
         4        2.0000           -0.3488883              -9.4937
         5        2.0000           -0.3181118              -8.6563
         6        2.0000           -0.3059601              -8.3256
         7        2.0000           -0.3058502              -8.3226
         8        2.0000           -0.2748804              -7.4799
         9        2.0000           -0.2671616              -7.2698
        10        2.0000           -0.1846176              -5.0237
        11        2.0000           -0.1693198              -4.6074
        12        2.0000           -0.1544413              -4.2026 (HOMO)
        13                          0.0416980               1.1347 (LUMO)
        14                          0.2950129               8.0277
        15                          0.3416310               9.2963
        16                          0.3833631              10.4318
        17                          0.3914003              10.6505
        18                          0.6333602              17.2346
        19                          0.8796656              23.9369
      -------------------------------------------------------------
                  HL-Gap            0.1961393 Eh            5.3372 eV

     #   Z          covCN         q      C6AA      α(0)
     1   6 C        3.742    -0.126    23.002     6.842
     2   6 C        2.678     0.368    20.769     7.458
     3   8 O        0.856    -0.607    26.280     6.873
     4   8 O        0.856    -0.606    26.276     6.873
     5   1 H        0.925    -0.009     3.215     2.804
     6   1 H        0.924    -0.011     3.248     2.819
     7   1 H        0.925    -0.009     3.217     2.805

Wiberg/Mayer (AO) data.
largest (>0.10) Wiberg bond orders for each atom

     #   Z sym  total        # sym  WBO       # sym  WBO       # sym  WBO
 ---------------------------------------------------------------------------
     1   6 C    3.969 --     5 H    0.991     7 H    0.991     6 H    0.984
                             2 C    0.884
     2   6 C    3.945 --     4 O    1.528     3 O    1.528     1 C    0.884
     3   8 O    1.832 --     2 C    1.528     4 O    0.230
     4   8 O    1.832 --     2 C    1.528     3 O    0.230
     5   1 H    1.000 --     1 C    0.991
     6   1 H    1.000 --     1 C    0.984
     7   1 H    1.000 --     1 C    0.991
 ---------------------------------------------------------------------------

molecular dipole:
                 x           y           z       tot (Debye)
 q only:       -0.997      -0.073      -0.027
   full:       -1.339      -0.130      -0.033       3.420

           -------------------------------------------------
          | TOTAL ENERGY              -14.166166136164 Eh   |
          | GRADIENT NORM               0.000370240144 Eh/α |
          | HOMO-LUMO GAP               5.337222351839 eV   |
           -------------------------------------------------

 * finished run on 2022/11/03 at 12:28:38.998
